#LAMMPS data file

  4991 atoms
  5518 bonds
  9300 angles
  14384 dihedrals
  1705 impropers

  12 atom types
  15 bond types
  24 angle types
  10 dihedral types
  3 improper types

  3.443 42.914257 xlo xhi 
  3.443 42.914257 ylo yhi 
  3.443 42.914257 zlo zhi 

Masses

  1 12.01 # c3 
  2 12.01 # ca 
  3 32.06 # sy 
  4 16.0 # o 
  5 14.01 # n 
  6 12.01 # c 
  7 12.01 # cp 
  8 1.008 # hc 
  9 1.008 # ha 
  10 1.008 # h1 
  11 15.9994 # SPC O in H2O 
  12 1.008 # SPC/E H in H2O 

Pair Coeffs

  1 0.1078 3.397709531243626 # c3 
  2 0.0988 3.3152123099438304 # ca 
  3 0.2824 3.532413417426445 # sy 
  4 0.1463 3.048120874245357 # o 
  5 0.1636 3.1808647832482673 # n 
  6 0.0988 3.3152123099438304 # c 
  7 0.0988 3.3152123099438304 # cp 
  8 0.0208 2.600176998764394 # hc 
  9 0.0161 2.62547852235958 # ha 
  10 0.0208 2.4219972551363265 # h1 
  11 0.1554 3.166 # SPC O in H2O 
  12 0.0 0 # SPC H in H2O 

Bond Coeffs

  1 272.66 1.491 # c,ca 
  2 395.72 1.086 # ca,ha 
  3 653.16 1.466 # o,sy 
  4 263.77 1.462 # c3,n 
  5 375.92 1.097 # c3,h1 
  6 315.21 1.412 # ca,n 
  7 378.57 1.398 # ca,ca 
  8 356.21 1.379 # c,n 
  9 368.44 1.406 # ca,cp 
  10 250.32 1.516 # c3,ca 
  11 652.57 1.218 # c,o 
  12 277.6 1.485 # cp,cp 
  13 375.92 1.097 # c3,hc 
  14 209.78 1.791 # ca,sy 
  15 0 1 # SPC O2 

Angle Coeffs

  1 126.375 121.41 # o,sy,o 
  2 48.68 119.88 # ca,ca,ha 
  3 68.767 120.02 # ca,ca,ca 
  4 65.694 123.71 # c,n,ca 
  5 85.392 115.25 # ca,c,n 
  6 66.121 121.11 # ca,cp,cp 
  7 68.877 118.38 # ca,cp,ca 
  8 48.475 119.86 # cp,ca,ha 
  9 65.252 120.69 # c,n,c3 
  10 38.96 107.58 # hc,c3,hc 
  11 85.629 120.19 # ca,ca,n 
  12 86.207 122.6 # ca,c,o 
  13 61.544 108.88 # h1,c3,n 
  14 68.394 120.69 # ca,ca,cp 
  15 63.407 119.42 # ca,ca,sy 
  16 65.583 120.77 # c3,ca,ca 
  17 71.127 104.44 # ca,sy,ca 
  18 94.276 108.35 # ca,sy,o 
  19 113.811 123.05 # n,c,o 
  20 47.281 110.47 # ca,c3,hc 
  21 65.616 127.08 # c,n,c 
  22 66.351 120.33 # c,ca,ca 
  23 38.802 108.46 # h1,c3,h1 
  24 0 109.47 # SPC O2 

Dihedral Coeffs

  1 1 0.0 2 180 # hc,c3,ca,ca 
  2 1 2.5 2 180 # X,c,n,X 
  3 1 3.625 2 180 # X,ca,ca,X 
  4 1 1.3 2 180 # X,ca,sy,X 
  5 1 0.795 2 180 # ca,cp,cp,ca 
  6 1 0.95 2 180 # c,n,ca,ca 
  7 1 1.0 2 180 # X,c,ca,X 
  8 1 0.0 2 180 # h1,c3,n,c 
  9 1 0.5225 2 180 # ca,ca,c,o 
  10 1 3.625 2 180 # X,ca,cp,X 

Improper Coeffs

 1 1.1 -1 2 # ca,X,X,ha 
 2 10.5 -1 2 # c,X,X,o 
 3 1.1 -1 2 # ca,ca,ca,c3 

Atoms # full

 1 1 1 -0.0515408 12.469127185846009 34.75933688965006 9.048350475298875 
 2 1 2 -0.062914 13.47828887924656 34.19130599319262 10.012278105233353 
 3 1 2 -0.0763404 13.302878601721936 32.838902226580075 10.46378984344311 
 4 1 2 -0.0612846 14.235781821635182 32.20574375183379 11.301922569131197 
 5 1 2 0.0640343 15.386961106964984 32.918634170909456 11.672991880339337 
 6 1 3 0.204788 16.48319639897474 32.152852264011344 12.892061732127813 
 7 1 4 -0.218586 17.744382084723334 32.890333277798476 12.720519638040953 
 8 1 4 -0.218586 16.377966020963793 30.658983503103503 12.684285021756613 
 9 1 2 0.0641292 15.702652240997823 32.572076511893655 14.497397330058494 
 10 1 2 -0.0599798 15.935966856310165 33.85260311483106 14.979262466876811 
 11 1 2 -0.0603265 15.384671773909982 34.1891745451759 16.178517746361653 
 12 1 2 0.0252789 14.451097542584062 33.3117284449571 16.819570473021734 
 13 1 5 -0.144067 14.07840990973359 33.54160906068694 18.153067506300733 
 14 1 6 0.245066 13.686223474656035 34.78491426585077 18.690587119111335 
 15 1 4 -0.274658 13.85176593728841 35.833389333782044 18.109688592034402 
 16 1 2 0.0429299 13.638621135615825 34.575361348798964 20.161404664430876 
 17 1 2 -0.0663783 13.513181472705552 35.57137911276304 21.22783915546604 
 18 1 2 -0.0716181 13.753916684816867 35.166561874623405 22.569664624514097 
 19 1 7 -0.0255564 13.99184943749878 33.81609219972974 22.877106265297016 
 20 1 7 -0.0255564 14.084488483707215 33.29341378051708 24.25564000574424 
 21 1 2 -0.0716181 13.30390485447073 32.18711331731723 24.661838737968786 
 22 1 2 -0.0663783 13.235974816752485 31.682670620025444 25.948207087322405 
 23 1 2 0.0429299 14.20396798642257 32.20065195934939 26.857032838898565 
 24 1 2 0.0437695 15.012142026097786 33.284651160892764 26.522395500272605 
 25 1 2 -0.0563659 14.873361077453191 33.90300791330067 25.281576984461616 
 26 1 6 0.245098 15.993752780319175 33.40038089394906 27.61594674663167 
 27 1 4 -0.274658 16.95274650280753 34.149663814347335 27.577225440994486 
 28 1 5 -0.144067 15.684416519076946 32.50347546276274 28.598583753601854 
 29 1 2 0.0252789 16.22221243070453 32.39579786665851 29.961131633923635 
 30 1 2 -0.0603265 16.481064950958014 31.112389861772574 30.569028502545763 
 31 1 2 -0.0599798 16.90901234720508 31.023816355299743 31.905367466513727 
 32 1 2 0.0641292 17.263858970730368 32.20724365969742 32.58632563659806 
 33 1 3 0.204789 18.18393403128369 32.03293857744073 34.07103706528589 
 34 1 4 -0.218586 17.370707670383638 31.19914769030523 34.98653345972921 
 35 1 4 -0.218586 18.69429741751082 33.34973926792204 34.49140597969571 
 36 1 2 0.0641292 19.681749918148423 31.017027298653876 33.709638212672154 
 37 1 2 -0.0599798 20.74455305330324 31.567769783420093 32.932962238133 
 38 1 2 -0.0603265 21.968793640095253 30.829775643258557 32.71733074710757 
 39 1 2 0.0252789 22.260841489646264 29.629770409841903 33.38451344760233 
 40 1 5 -0.144067 23.5487097468635 28.949917435025498 33.31753072011374 
 41 1 6 0.245066 24.76162208215921 29.621481445332414 32.92281812442376 
 42 1 4 -0.274658 24.851892852793508 30.777791994406186 32.74405278983578 
 43 1 2 0.0429299 25.8673699477251 28.66051415986561 32.948750741960595 
 44 1 2 -0.0663783 27.164632364719758 28.87342213398078 32.62520482727352 
 45 1 2 -0.0716181 28.038012925202956 27.87669388734447 32.880189164089245 
 46 1 7 -0.0255564 27.57150210835698 26.525790028595537 33.35439687655118 
 47 1 7 -0.0255564 28.489169422076596 25.341257528929937 33.641589761175204 
 48 1 2 -0.0716181 28.01417228442328 24.27182322216753 34.459118489368265 
 49 1 2 -0.0663783 28.805373682483832 23.187824020624163 34.751166338919276 
 50 1 2 0.0429299 30.10468860497608 23.150681565369734 34.20287107224634 
 51 1 2 0.0437695 30.621998932887355 24.190472956195823 33.41537997258528 
 52 1 2 -0.0563659 29.851756773657943 25.348480769431063 33.13619975365376 
 53 1 6 0.245098 31.997138145011643 23.760630939489445 32.901701000554354 
 54 1 4 -0.274658 32.74456591621018 24.50971650358987 32.244543999990114 
 55 1 5 -0.144067 32.23084747291968 22.466210453183756 33.41577468518096 
 56 1 2 0.0252789 33.466297897429286 21.722335095346434 33.20259041224881 
 57 1 2 -0.0603265 33.44506235978116 20.296830556012104 33.00697084982487 
 58 1 2 -0.0599798 34.618858676844 19.621003649671735 32.678727855249086 
 59 1 2 0.0641292 35.887346545612864 20.268134950305445 32.71421251760161 
 60 1 3 0.204789 37.33377085251876 19.236040455095306 32.568208328455896 
 61 1 4 -0.218586 38.02818872211613 19.420647536099505 33.84577458692563 
 62 1 4 -0.218586 38.06363391320909 19.690986192887568 31.374084312715024 
 63 1 2 0.0641292 36.85849741604847 17.489792460503306 32.39003506276144 
 64 1 2 -0.0599798 37.3535854248224 16.731904805518994 31.362045578546482 
 65 1 2 -0.0603265 36.82514420171266 15.469179740647204 31.132441261633627 
 66 1 2 0.0252789 35.77197205389268 14.855480596868437 31.956916931510836 
 67 1 5 -0.144067 35.036109361747876 13.594452796158118 31.593307688361232 
 68 1 6 0.245066 34.32037701198325 12.782252688006864 32.4616359276196 
 69 1 4 -0.274658 34.36576896048759 12.875917986964094 33.69523120292947 
 70 1 2 0.0429299 33.51768947738812 11.837192320146364 31.57195373693441 
 71 1 2 -0.0663783 32.50592268085602 10.910801858062003 32.00128262726639 
 72 1 2 -0.0716181 31.839647819331347 10.317351470442132 30.90938917380922 
 73 1 7 -0.0255564 32.096921489202074 10.548534637737749 29.519842951942245 
 74 1 7 -0.0255566 31.344046684183017 9.785357833971187 28.48147252646064 
 75 1 2 -0.0716184 30.170013539562767 9.027154408910322 28.774072973645616 
 76 1 2 -0.0663921 29.696200539696527 8.145484883917634 27.790172886369223 
 77 1 2 0.0425159 30.217260637266858 8.154050147244106 26.4828058269249 
 78 1 2 0.0433555 31.28089266887262 8.897925505081425 26.16518060117318 
 79 1 2 -0.0563797 31.850068231857563 9.696942212536634 27.147186067990262 
 80 1 6 0.239833 31.675684207081733 8.500331507442919 24.8054351802808 
 81 1 4 -0.27508 32.673162407649855 8.880321323313652 24.217116056404898 
 82 1 5 -0.183748 30.710809266917597 7.560323460807251 24.414077641654192 
 83 1 1 -0.018701 30.71747990978476 6.95700525829513 23.106631639690733 
 84 1 6 0.2398 29.810114594812653 7.272633238312659 25.36174311264625 
 85 1 4 -0.27508 29.129038010949607 6.284750500945757 25.437764758576137 
 86 1 2 -0.0563659 33.15289609645144 11.46272848061529 29.216348437116228 
 87 1 2 0.0437695 33.71362480988862 12.192117886190788 30.283809180900185 
 88 1 6 0.245098 34.72858877844581 13.275090834985361 30.220615694330224 
 89 1 4 -0.274658 35.05702912931944 13.90682834438716 29.229650251590982 
 90 1 2 -0.0603265 35.3979029269573 15.616210182541717 33.143659821712305 
 91 1 2 -0.0599798 35.99889232515485 16.889474073718425 33.376816551986366 
 92 1 2 -0.0599798 35.91051617497986 21.68661360543649 32.8251267569905 
 93 1 2 -0.0603265 34.7554687062123 22.40585889730276 33.05946762505164 
 94 1 6 0.245066 31.119099975899303 22.006962348098472 34.11595535867541 
 95 1 4 -0.274658 30.99097626733834 20.89284657550396 34.6392258467816 
 96 1 2 -0.0563659 26.130051180156773 26.355787313631872 33.48587564217551 
 97 1 2 0.0437695 25.31248298070414 27.461850949274307 33.29447950452544 
 98 1 6 0.245098 23.851138537681155 27.65064198379282 33.53710933709607 
 99 1 4 -0.274658 23.090053710671754 26.807496408139475 34.03567081671207 
 100 1 2 -0.0603265 21.186749574254712 29.049542894177645 34.13482262074939 
 101 1 2 -0.0599798 19.892289616689453 29.725251386739306 34.26227531789768 
 102 1 2 -0.0599798 16.983613027790486 33.48153380362292 31.99540140959061 
 103 1 2 -0.0603265 16.46203980384576 33.535372601675036 30.681679477355676 
 104 1 6 0.245066 14.660097862001901 31.665816392189484 28.190924584773253 
 105 1 4 -0.274658 14.18944256290118 30.726676713264332 28.809478693479008 
 106 1 2 -0.0563659 14.081962323094801 32.8556775118969 21.818368669877806 
 107 1 2 0.0437695 13.904341655034315 33.305649870983466 20.461386237155253 
 108 1 6 0.245098 14.340735900829145 32.63917765316095 19.21030519385632 
 109 1 4 -0.274658 14.859940849199733 31.575821920372167 19.102706540271235 
 110 1 2 -0.0603265 14.23076897166992 32.01778161376623 16.30214173133175 
 111 1 2 -0.0599798 14.825719267153413 31.686144090867515 15.139397366948234 
 112 1 2 -0.0612846 15.590751220119715 34.21913323118876 11.134524957299078 
 113 1 2 -0.0763404 14.69641142080538 34.80828125151562 10.24184295088664 
 114 1 8 0.0333695 11.651361630095527 35.326578360916116 9.603632154915525 
 115 1 8 0.0333695 12.849393300533727 35.60844262549833 8.372484097698937 
 116 1 8 0.0333695 12.081322060580613 33.91330991204818 8.397193106189128 
 117 1 9 0.0846208 12.459969853626003 32.22630827806924 10.154137812124329 
 118 1 9 0.0862567 13.982928932836186 31.254920580076224 11.786471751600205 
 119 1 9 0.0863316 16.7658895600079 34.45165842130973 14.567379873274326 
 120 1 9 0.0867958 15.600619035011965 35.083277516932824 16.66551414692394 
 121 1 9 0.0854808 13.381268523225962 36.59636878125076 21.012168193181036 
 122 1 9 0.0851824 13.766942200474634 35.869781835104654 23.399271558135275 
 123 1 9 0.0851824 12.724466763997851 31.74495626762532 23.879834143387818 
 124 1 9 0.0854808 12.661233806168319 30.74526767652133 26.12945911126324 
 125 1 9 0.0869163 15.654576246842785 34.55290220210421 24.89396921549406 
 126 1 9 0.0867958 16.261802104052236 30.21560284436496 30.11238550059203 
 127 1 9 0.0863316 16.97860017782522 30.028035418893086 32.41099430159258 
 128 1 9 0.0863316 20.58666801502725 32.48547656839928 32.426545977862766 
 129 1 9 0.0867958 22.71393207823878 31.307969952936954 32.06218678078135 
 130 1 9 0.0854808 27.55464788052102 29.788721172126255 32.41245473819663 
 131 1 9 0.0851824 29.045082641846353 28.094417355127053 32.69321380751091 
 132 1 9 0.0851824 27.010457624843255 24.29088784053935 34.822727732517876 
 133 1 9 0.0854808 28.427752142187238 22.39512271469999 35.33277534866845 
 134 1 9 0.0869163 30.343331840330237 26.21203298628158 32.60479818607635 
 135 1 9 0.0867958 32.50702787612395 19.786822411121094 33.047192063325674 
 136 1 9 0.0863316 34.55219171943196 18.588435499346772 32.392995407229115 
 137 1 9 0.0863316 38.1468787996401 17.040017457714583 30.699954670536126 
 138 1 9 0.0867958 37.29777306379184 14.876203008142161 30.245758886675674 
 139 1 9 0.0854808 32.3735360762616 10.700893699674076 33.12435837578306 
 140 1 9 0.0851824 31.156755557528125 9.521334578714166 31.174399210555467 
 141 1 9 0.0851824 29.756828394394503 9.001300733892629 29.789944781172895 
 142 1 9 0.0854805 28.928997667453928 7.435594280569221 27.99230520662206 
 143 1 9 0.0869159 32.7736957057721 10.211371138499374 26.87830784780625 
 144 1 10 0.0498241 30.472560744159132 5.858891134329889 23.139077015056447 
 145 1 10 0.0498241 29.89754343475798 7.452251152107337 22.530745962579065 
 146 1 10 0.0498241 31.672329150018367 7.001982758574003 22.57621685360255 
 147 1 9 0.0869163 33.511413547116646 11.660163720979414 28.208291938983614 
 148 1 9 0.0867958 34.605043735994855 15.216958392001313 33.8566291833071 
 149 1 9 0.0863316 35.641480069757584 17.380417600237614 34.27818223550399 
 150 1 9 0.0863316 36.798698457801436 22.246987077537547 32.75222334056656 
 151 1 9 0.0867958 34.90281491818337 23.483542697315087 33.04904721252542 
 152 1 9 0.0869163 25.680986660040297 25.491445671589968 33.89590308657825 
 153 1 9 0.0867958 21.22424727084526 28.04823598143133 34.55716509813766 
 154 1 9 0.0863316 19.04199974305412 29.33199922765339 34.80682081491157 
 155 1 9 0.0863316 17.318566136492997 34.37251854587389 32.564419087537274 
 156 1 9 0.0867958 16.159847840585517 34.489314002938556 30.240588151672135 
 157 1 9 0.0869163 14.355616565686658 31.841187198454538 22.014896071271842 
 158 1 9 0.0867958 13.399780543963823 31.410121572701517 16.70119616557431 
 159 1 9 0.0863316 14.697358731035035 30.680219040751624 14.698858638898656 
 160 1 9 0.0862567 16.513234027506748 34.7368777429553 11.382680766209363 
 161 1 9 0.0846208 14.874742571538107 35.80153602730986 9.85174849256624 
 162 2 1 -0.0515408 15.92834890321335 6.365504750897967 36.989818296634525 
 163 2 2 -0.062914 14.71330511990091 5.839479168873856 36.16277699488533 
 164 2 2 -0.0763404 14.767578101808281 4.490012063973242 35.6355988520818 
 165 2 2 -0.0612846 13.65579113352834 3.879427202574468 35.14212916495019 
 166 2 2 0.0640343 12.416827766917088 4.527209778991065 35.135221694525626 
 167 2 3 0.204788 10.916169949363386 3.6094051052881504 34.68560457677518 
 168 2 4 -0.218586 11.213467476437074 41.82544230643236 34.02106645067154 
 169 2 4 -0.218586 9.828105208084413 4.478687759602897 34.26641980015243 
 170 2 2 0.0641292 10.648436395706879 42.647352344437586 36.44475967324624 
 171 2 2 -0.0599798 11.542381482425526 41.75530187817825 37.031223647922396 
 172 2 2 -0.0603265 11.280292318887385 41.24525426202767 38.3241047551049 
 173 2 2 0.0252789 10.122087149354304 41.56955013064655 38.92943599185504 
 174 2 5 -0.144067 9.884943821863768 40.99342762597747 40.219356754569866 
 175 2 6 0.245066 10.013067530424731 39.70121753020764 40.55261259911091 
 176 2 4 -0.274658 10.416700630777296 38.74005288844299 39.835735582818785 
 177 2 2 0.0429299 9.574462894094037 39.56666000633693 41.95273711854237 
 178 2 2 -0.0663783 9.869984214487118 38.54561746380611 42.87944335070328 
 179 2 2 -0.0716181 9.683561455542744 38.781537182250005 4.768012092243645 
 180 2 7 -0.0255564 9.220681994577117 40.03285505310635 5.27768473142832 
 181 2 7 -0.0255564 9.222339787479013 40.30666718073649 6.784590849371794 
 182 2 2 -0.0716181 9.65147132151315 39.28570358072481 7.770350032973885 
 183 2 2 -0.0663783 10.047052284913638 39.649549651431826 9.109886168966941 
 184 2 2 0.0429299 10.068524650119173 41.006176842818256 9.436708198198236 
 185 2 2 0.0437695 9.604145281289924 41.927238684860804 8.520619734861382 
 186 2 2 -0.0563659 9.13664768295472 41.657413154447134 7.221083773315549 
 187 2 6 0.245098 9.65032665498565 3.7397676236918684 9.206472341132276 
 188 2 4 -0.274658 9.479021388456202 4.828122873441271 8.691056633680311 
 189 2 5 -0.144067 10.237698468631894 3.5292689752607895 10.480801956317347 
 190 2 2 0.0252789 10.689447034399066 4.564577220425034 11.326078979987422 
 191 2 2 -0.0603265 11.9676448330219 4.582441912505962 11.79014257874012 
 192 2 2 -0.0599798 12.420024938942177 5.599746526755595 12.642129716536923 
 193 2 2 0.0641292 11.544828700518803 6.615243357316968 13.113298142012042 
 194 2 3 0.204789 12.184144691757849 7.788033157260796 14.27284533437047 
 195 2 4 -0.218586 13.098654304711944 7.02254728480945 15.07809850083758 
 196 2 4 -0.218586 11.018282097868383 8.38294398148472 14.886583949408807 
 197 2 2 0.0641292 13.10275931570712 8.935304787893266 13.298418349390639 
 198 2 2 -0.0599798 14.516698775987734 8.823522180793866 12.934572278683623 
 199 2 2 -0.0603265 15.080308891373443 9.705310119565262 12.005458299689 
 200 2 2 0.0252789 14.372944448637448 10.842595521526775 11.528882311652929 
 201 2 5 -0.144067 15.028009472444523 11.816114667536521 10.742180637183248 
 202 2 6 0.245066 16.02083006438351 11.634033747144738 9.821710864034234 
 203 2 4 -0.274658 16.38447877879268 10.508984435649612 9.400513053173466 
 204 2 2 0.0429299 16.587834708092153 12.954821034842519 9.380461653312416 
 205 2 2 -0.0663783 17.670728714367588 13.221725692048077 8.522632769099403 
 206 2 2 -0.0716181 17.985551480689907 14.562880149683462 8.369365868192986 
 207 2 7 -0.0255564 17.1967183582035 15.629788295833453 8.977539035632093 
 208 2 7 -0.0255564 17.652177222370156 17.10317147302498 8.834889903549737 
 209 2 2 -0.0716181 16.572993514494208 18.10084702989095 8.632994410854316 
 210 2 2 -0.0663783 16.853357871212793 19.49252469977465 8.607456505913177 
 211 2 2 0.0429299 18.212471751952073 19.87468543492168 8.747500534863978 
 212 2 2 0.0437695 19.237540362958928 18.996449909511494 8.850678407377337 
 213 2 2 -0.0563659 18.99218701347804 17.58002375987803 8.86228295769062 
 214 2 6 0.245098 20.4780036374338 19.728326004439836 8.873690151706061 
 215 2 4 -0.274658 21.605381753243496 19.241171718839276 8.772564784690292 
 216 2 5 -0.144067 20.15457613652544 21.081637610022476 8.817009422964983 
 217 2 2 0.0252789 21.164882496453487 22.08136567238603 9.155949128883961 
 218 2 2 -0.0603265 22.337928859584515 21.734965898408515 9.955794732790118 
 219 2 2 -0.0599798 23.096448054721932 22.741680373715784 10.514628825767979 
 220 2 2 0.0641292 22.93157660350223 24.07308543023763 10.134165354782416 
 221 2 3 0.204789 23.918989632880265 25.330600288846306 11.068213241223162 
 222 2 4 -0.218586 25.244039816611497 24.828367982090388 11.335354725986136 
 223 2 4 -0.218586 23.060489737254574 25.93308959490748 12.078164359815093 
 224 2 2 0.0641292 24.238430536572157 26.721212234721644 9.958044594585552 
 225 2 2 -0.0599798 25.38838621285532 26.71860713159009 9.18906551566235 
 226 2 2 -0.0603265 25.83227999796826 27.865049865771613 8.53017177967708 
 227 2 2 0.0252789 25.110745373046996 29.068094386175076 8.730014766874913 
 228 2 5 -0.144067 25.57954552294797 30.33468763448462 8.146076952811168 
 229 2 6 0.245066 26.935264875364314 30.65476007832962 8.080554661926634 
 230 2 4 -0.274658 27.910086572939836 30.043310796346287 8.556420167290462 
 231 2 2 0.0429299 26.981722547877023 31.9834416179412 7.362927691702697 
 232 2 2 -0.0663783 28.0732212887385 32.70785764481101 6.979519664753287 
 233 2 2 -0.0716181 27.852340120190394 33.83120969214466 6.149064099051372 
 234 2 7 -0.0255564 26.53407899310503 34.390635854016054 6.031889717894847 
 235 2 7 -0.0255566 26.327486420520895 35.77485345584122 5.439114288813605 
 236 2 2 -0.0716184 25.031802853909 36.39190765668335 5.418616863719425 
 237 2 2 -0.0663921 24.93422990025444 37.715102691214845 4.9635250822667585 
 238 2 2 0.0425159 26.053674292890765 38.482423977236145 4.770510622974363 
 239 2 2 0.0433555 27.320978023872556 37.90495944974172 4.784617651144322 
 240 2 2 -0.0563797 27.51608445992211 36.58429057582264 5.125728276339595 
 241 2 6 0.239833 28.29576025018851 39.0496654485022 4.539453763709368 
 242 2 4 -0.27508 29.46304380942246 38.97688044585698 4.315316216246817 
 243 2 5 -0.183748 27.493822669525194 40.160268278995076 4.291945283456014 
 244 2 1 -0.018701 27.985831920052743 41.489502416240626 3.819281291955826 
 245 2 6 0.2398 26.15854942956559 39.93386113410731 4.508855643291481 
 246 2 4 -0.27508 25.224462071865272 40.65054079410159 4.173093373767807 
 247 2 2 -0.0563659 25.45055344667649 33.64573424342994 6.540133497483124 
 248 2 2 0.0437695 25.68706523401392 32.429782621147424 7.174247176710977 
 249 2 6 0.245098 24.793159618554842 31.28258993303409 7.518760224481098 
 250 2 4 -0.274658 23.71164710636432 31.06403756880055 7.01694631307661 
 251 2 2 -0.0603265 23.933830826478204 29.06758125980068 9.456917483097563 
 252 2 2 -0.0599798 23.45634699947205 27.883364530211626 10.02897444803104 
 253 2 2 -0.0599798 21.859260894791287 24.43069504193274 9.296900996804847 
 254 2 2 -0.0603265 20.993537758664473 23.442492587363333 8.777972347251243 
 255 2 6 0.245066 18.84270935349025 21.281322712182032 8.838047604315257 
 256 2 4 -0.274658 18.307044889879393 22.33571846904865 9.069941254283115 
 257 2 2 -0.0563659 16.096930652832533 15.274704844750755 9.767043169531174 
 258 2 2 0.0437695 15.80310659660092 13.943339259488484 9.941466665566573 
 259 2 6 0.245098 14.817706601460907 13.20072698195737 10.757732313453433 
 260 2 4 -0.274658 14.048490694980291 13.77069197013369 11.456334136565113 
 261 2 2 -0.0603265 13.035263461844135 10.99357308937819 11.957224420495686 
 262 2 2 -0.0599798 12.40885457248415 10.04740752624976 12.800014754812912 
 263 2 2 -0.0599798 10.223094102591366 6.577066755061835 12.645563716119426 
 264 2 2 -0.0603265 9.796488729169646 5.560547618877624 11.784379774843046 
 265 2 6 0.245066 10.521891537528674 41.6510977529161 10.691025884781826 
 266 2 4 -0.274658 11.014690213247604 41.10596018700868 11.694187946727888 
 267 2 2 -0.0563659 9.059284014199486 41.030530609972324 4.2898375181950295 
 268 2 2 0.0437695 9.267850149762067 40.80005792534895 42.4098932468705 
 269 2 6 0.245098 9.504006695763376 41.76536704936834 41.31156597810359 
 270 2 4 -0.274658 9.136055614061185 3.4916974674148484 41.2192427019717 
 271 2 2 -0.0603265 9.233194383860488 42.43290499119922 38.33026227159766 
 272 2 2 -0.0599798 9.47992922742629 3.4677857783679498 37.07085279252967 
 273 2 2 -0.0612846 12.306545067681311 5.849662753842658 35.60181145389074 
 274 2 2 -0.0763404 13.471855063936811 6.5047040948939925 36.20765581701527 
 275 2 8 0.0333695 16.83121449459459 6.404995746096748 36.4159061825013 
 276 2 8 0.0333695 15.707586148443946 7.376178193540009 37.43525146087065 
 277 2 8 0.0333695 16.094246607181844 5.733490942679186 37.7967687272631 
 278 2 9 0.0846208 15.707704562222652 3.9160091659430147 35.67045197428122 
 279 2 9 0.0862567 13.82535966463675 42.28788758354273 34.84246336230237 
 280 2 9 0.0863316 12.511006192248715 41.45563607553042 36.527333548264586 
 281 2 9 0.0867958 11.971670901497937 40.522338143021486 38.780155688165095 
 282 2 9 0.0854808 10.256605201965446 37.63797585001702 42.541372012494826 
 283 2 9 0.0851824 10.085339406695566 37.96949495913703 5.400258780893884 
 284 2 9 0.0851824 9.67823283550093 38.26288483151338 7.465750322879934 
 285 2 9 0.0854808 10.300734070163584 38.84082301412264 9.782831673358773 
 286 2 9 0.0869163 8.773077911064687 42.48946730616159 6.635172396273356 
 287 2 9 0.0867958 12.624801833586133 3.8171198457818276 11.368905296619783 
 288 2 9 0.0863316 13.468302650575602 5.575226980311335 12.942900714452682 
 289 2 9 0.0863316 15.122503667852703 7.978876697276897 13.253381642222413 
 290 2 9 0.0867958 16.090575780041927 9.535386347120728 11.667031720144418 
 291 2 9 0.0854808 18.30226886747154 12.356634096074368 8.121920541954943 
 292 2 9 0.0851824 18.853800777429136 14.84948096541395 7.781007273057514 
 293 2 9 0.0851824 15.537307134663294 17.791116056053028 8.476964521778072 
 294 2 9 0.0854808 16.07549775888657 20.218795875844197 8.467491419481512 
 295 2 9 0.0869163 19.862212516897877 16.938813148179676 8.972723541964676 
 296 2 9 0.0867958 22.55963892458357 20.749447489489793 10.316285746433769 
 297 2 9 0.0863316 23.93848843510735 22.565322785961506 11.1947186281418 
 298 2 9 0.0863316 25.970587291498024 25.767468189755967 9.134358349899719 
 299 2 9 0.0867958 26.749947311687873 27.825223364866492 7.930129691709186 
 300 2 9 0.0854808 29.08877732618923 32.3189078530181 7.032470359465096 
 301 2 9 0.0851824 28.746758862023867 34.24790777941457 5.654453692518226 
 302 2 9 0.0851824 24.11314875870016 35.848427883677836 5.705608444919646 
 303 2 9 0.0854805 23.946777399616835 38.17150886561116 5.05405636321421 
 304 2 9 0.0869159 28.49366914566746 36.16692147714007 5.164275908434678 
 305 2 10 0.0498241 27.362264961381726 42.25871832272124 4.331337600505873 
 306 2 10 0.0498241 29.022347196334607 41.755736062033506 4.128526374588452 
 307 2 10 0.0498241 27.823605043224166 41.54215707650567 42.214234213186984 
 308 2 9 0.0869163 24.397499712635216 33.968056549070376 6.3402786689074215 
 309 2 9 0.0867958 23.19374470955951 29.87551847191848 9.480797595136806 
 310 2 9 0.0863316 22.60724126362378 27.97971387481955 10.665487979840687 
 311 2 9 0.0863316 21.67694314684209 25.471552156767196 9.15196253166749 
 312 2 9 0.0867958 20.114552279322478 23.71397591067889 8.231926942373738 
 313 2 9 0.0869163 15.608829057002316 15.982700827639857 10.425029066546355 
 314 2 9 0.0867958 12.435734500250637 11.841889400035075 11.625073771222574 
 315 2 9 0.0863316 11.275832066556088 10.017014656381633 12.856221828439164 
 316 2 9 0.0863316 9.48340269826836 7.29680938479867 12.97956951459228 
 317 2 9 0.0867958 8.726936008628531 5.550415346546263 11.45092657400416 
 318 2 9 0.0869163 8.701950701321355 41.9790644486749 4.659793739883326 
 319 2 9 0.0867958 8.341301802639428 42.73643897728481 38.907726799092096 
 320 2 9 0.0863316 8.69622736868385 4.093041712235924 36.68052150665186 
 321 2 9 0.0862567 11.396377293279805 6.365840256604304 35.46713551624132 
 322 2 9 0.0846208 13.377321397269064 7.502063881683411 36.63256392627553 
 323 3 1 -0.0515408 17.990130146799913 8.907517021156693 6.485015830620977 
 324 3 2 -0.062914 16.72957600120442 8.107631945990967 6.65618689486789 
 325 3 2 -0.0763404 15.699534011491872 8.115960381760024 5.700260089248047 
 326 3 2 -0.0612846 14.536513348291372 7.389487902266675 5.93946776361404 
 327 3 2 0.0640343 14.373260218714 6.613392155243183 7.038075278323894 
 328 3 3 0.204788 12.709941340476462 5.979760025382072 7.554363300612333 
 329 3 4 -0.218586 11.649230182078801 6.84267675495353 6.9749015273837145 
 330 3 4 -0.218586 12.76153027673314 5.808959990975108 8.988354160754 
 331 3 2 0.0641292 12.623341396982081 4.367165662816651 6.9254637747735455 
 332 3 2 -0.0599798 13.319140760664363 42.85868146817 7.6455024389571475 
 333 3 2 -0.0603265 13.460053157325682 41.591061967111656 6.985902167425593 
 334 3 2 0.0252789 12.731137406865011 41.28796216488133 5.829267954023357 
 335 3 5 -0.144067 12.968675446951236 40.0488409132318 5.199760570787206 
 336 3 6 0.245066 13.141480621344307 38.89596436374053 6.003008597268211 
 337 3 4 -0.274658 13.057446309721911 38.72698790152565 7.2116185652709035 
 338 3 2 0.0429299 13.240079827747662 37.75788953658763 5.148945271218079 
 339 3 2 -0.0663783 13.137967679242665 36.36226474074704 5.482919492683278 
 340 3 2 -0.0716181 12.859853184319512 35.41053373001938 4.4781825274804135 
 341 3 7 -0.0255564 12.811224592530507 35.85770362967655 42.573067433928735 
 342 3 7 -0.0255564 12.482547414099468 34.859159705100055 41.47584536042975 
 343 3 2 -0.0716181 11.706581922232553 35.237215429251904 40.34795411824566 
 344 3 2 -0.0663783 11.593180993490826 34.434133182061096 39.18071003027127 
 345 3 2 0.0429299 12.111714930448741 33.121279617536686 39.27445427174764 
 346 3 2 0.0437695 12.799541099698084 32.65796597271579 40.35419057725756 
 347 3 2 -0.0563659 13.022711601301195 33.55798963340807 41.470003614013535 
 348 3 6 0.245098 13.32474567952316 31.369347761566743 39.968359014970616 
 349 3 4 -0.274658 14.052595705975467 30.586632684313532 40.60791183376707 
 350 3 5 -0.144067 12.861313620923564 31.062971844792187 38.64836115246421 
 351 3 2 0.0252789 13.218370634984712 29.9220945582099 37.87239566059729 
 352 3 2 -0.0603265 12.263679279789379 29.245201927861167 37.14024326685197 
 353 3 2 -0.0599798 12.49115214868551 28.075471150533936 36.43224728396287 
 354 3 2 0.0641292 13.829464675631925 27.50712448399995 36.61053896343603 
 355 3 3 0.204789 14.276555632769957 25.806505265469706 36.01329933489753 
 356 3 4 -0.218586 13.232975001025242 25.54974472197338 35.021781294524324 
 357 3 4 -0.218586 14.613442833191346 24.89002208953716 37.10282451278056 
 358 3 2 0.0641292 15.77480570348995 26.038754156773685 35.13699790120623 
 359 3 2 -0.0599798 15.758385659509246 26.50842267438518 33.85430037899253 
 360 3 2 -0.0603265 16.972600546370735 26.665636701248495 33.18581512693199 
 361 3 2 0.0252789 18.21965552119363 26.309803296233987 33.77792349172652 
 362 3 5 -0.144067 19.456013784673328 26.25501718795222 32.97444653194001 
 363 3 6 0.245066 19.823649096298965 27.148607033334745 32.034833197900035 
 364 3 4 -0.274658 19.383623494623784 28.28131376918625 31.938996979666513 
 365 3 2 0.0429299 21.0770194726529 26.707318351353358 31.33212636379318 
 366 3 2 -0.0663783 22.071853098829905 27.398065393810807 30.516808026135976 