LAMMPS amorphous polymer system with 27 CH4 gas molecules inserted

        4131  atoms
        4077  bonds
        8100  angles
       11907  dihedrals
           0  impropers

           3  atom types
           2  bond types
           3  angle types
           3  dihedral types
           0  improper types

           0  34.092106182037774 xlo xhi
           0  34.092106182037774 ylo yhi
           0  34.092106182037774 zlo zhi

Masses

           1  16.04 # TraPPE CH4
           2  12.01 # c3
           3  1.008 # hc

Pair Coeffs

           1  0.294106636 3.73 # TraPPE CH4
           2  0.1078 3.397709531243626 # c3
           3  0.0208 2.600176998764394 # hc

Bond Coeffs

           1  375.92 1.097 # c3,hc
           2  232.52 1.538 # c3,c3

Angle Coeffs

           1  38.96 107.58 # hc,c3,hc
           2  64.888 111.51 # c3,c3,c3
           3  46.816 109.8 # c3,c3,hc

Dihedral Coeffs

           1  1 0.12 3 0 # hc,c3,c3,hc
           2  3 0.13 3 0 0.29 2 180 0.11 1 0 # c3,c3,c3,c3
           3  2 0.08 3 0 0.08 3 0 # hc,c3,c3,c3

Atoms

           1 1 2 -0.0768792180491662 25.498 33.294 33.686
           2 1 2 -0.06895447305501981 24.269 33.603 32.831
           3 1 2 -0.06580140005508675 24.551 33.492 31.324
           4 1 2 -0.06546435133643977 25.475 34.613 30.812
           5 1 2 -0.06545042768651546 25.531 34.67 29.277
           6 1 2 -0.06545017948692887 26.3 33.484 28.672
           7 1 2 -0.06545017745546566 26.437 33.585 27.144
           8 1 2 -0.06545017744756064 25.099 33.369 26.421
           9 1 2 -0.06545017744754572 25.298 33.227 24.907
          10 1 2 -0.06545017744754571 23.953 33.026 24.199
          11 1 2 -0.06545017744754571 24.146 32.785 22.694
          12 1 2 -0.06545017744754571 22.815 32.75 21.926
          13 1 2 -0.06545017744754571 21.952 31.533 22.292
          14 1 2 -0.06545017744754571 20.697 31.457 21.416
          15 1 2 -0.06545017744754571 19.827 30.254 21.81
          16 1 2 -0.06545017744754571 18.484 30.216 21.065
          17 1 2 -0.06545017744754571 18.642 29.846 19.581
          18 1 2 -0.06545017744754571 17.296 29.754 18.84
          19 1 2 -0.06545017744754571 16.347 28.641 19.332
          20 1 2 -0.06545017744754571 16.949 27.223 19.349
          21 1 2 -0.06545017744754571 17.492 26.722 17.997
          22 1 2 -0.06545017744754571 16.399 26.464 16.937
          23 1 2 -0.06545017744754571 16.224 27.639 15.96
          24 1 2 -0.06545017744754571 15.361 27.278 14.742
          25 1 2 -0.06545017744754571 13.915 26.912 15.124
          26 1 2 -0.06545017744754571 13.005 26.8 13.891
          27 1 2 -0.06545017744754571 12.455 28.167 13.452
          28 1 2 -0.06545017744754571 11.688 28.049 12.128
          29 1 2 -0.06545017744754571 10.892 29.318 11.779
          30 1 2 -0.06545017744754571 11.733 30.604 11.652
          31 1 2 -0.06545017744754571 12.892 30.536 10.638
          32 1 2 -0.06545017744754571 12.484 30.137 9.211
          33 1 2 -0.06545017744754571 11.44 31.085 8.596
          34 1 2 -0.06545017744754571 11.279 30.888 7.081
          35 1 2 -0.06545017744754571 10.809 29.472 6.712
          36 1 2 -0.06545017744754571 10.466 29.375 5.219
          37 1 2 -0.06545017744754571 10.01 27.956 4.816
          38 1 2 -0.06545017744754571 8.491 27.828 4.614
          39 1 2 -0.06545017744754571 7.702 27.966 5.926
          40 1 2 -0.06545017744754571 6.185 27.82 5.728
          41 1 2 -0.06545017744754571 5.763 26.385 5.378
          42 1 2 -0.06545017744754572 4.233 26.252 5.377
          43 1 2 -0.06545017744756064 3.759 24.833 5.022
          44 1 2 -0.06545017745546566 3.992 24.49 3.542
          45 1 2 -0.06545017948692887 3.298 23.173 3.166
          46 1 2 -0.06545042768651546 3.666 22.685 1.753
          47 1 2 -0.06546435133643977 3.328 23.666 0.612
          48 1 2 -0.06580140005508675 1.855 24.106 0.546
          49 1 2 -0.06895447305501981 0.895 22.934 0.303
          50 1 2 -0.0768792180491662 -0.533 23.429 0.091
          51 1 3 0.027287831691225867 25.912 32.297 33.425
          52 1 3 0.027287831691225867 26.279 34.068 33.545
          53 1 3 0.027287831691225867 25.209 33.286 34.758
          54 1 3 0.0321908035406296 23.471 32.875 33.093
          55 1 3 0.0321908035406296 23.89 34.619 33.076
          56 1 3 0.03270259347591514 23.577 33.55 30.791
          57 1 3 0.03270259347591514 24.998 32.498 31.108
          58 1 3 0.03272470591766552 26.501 34.48 31.215
          59 1 3 0.03272470591766552 25.091 35.592 31.176
          60 1 3 0.03272508565556845 26.04 35.614 28.983
          61 1 3 0.03272508565556845 24.496 34.709 28.876
          62 1 3 0.032725088711950574 25.801 32.526 28.928
          63 1 3 0.032725088711950574 27.322 33.46 29.11
          64 1 3 0.03272508872375067 27.157 32.804 26.814
          65 1 3 0.03272508872375067 26.862 34.574 26.864
          66 1 3 0.03272508872377283 24.427 34.231 26.615
          67 1 3 0.03272508872377283 24.613 32.446 26.81
          68 1 3 0.032725088723772854 25.792 34.143 24.512
          69 1 3 0.032725088723772854 25.956 32.353 24.703
          70 1 3 0.032725088723772854 23.442 32.149 24.651
          71 1 3 0.032725088723772854 23.32 33.928 24.353
          72 1 3 0.032725088723772854 24.764 33.607 22.272
          73 1 3 0.032725088723772854 24.697 31.833 22.533
          74 1 3 0.032725088723772854 22.247 33.685 22.119
          75 1 3 0.032725088723772854 23.046 32.714 20.839
          76 1 3 0.032725088723772854 21.638 31.605 23.354
          77 1 3 0.032725088723772854 22.548 30.603 22.16
          78 1 3 0.032725088723772854 21.006 31.366 20.352
          79 1 3 0.032725088723772854 20.109 32.395 21.535
          80 1 3 0.032725088723772854 20.384 29.308 21.628
          81 1 3 0.032725088723772854 19.61 30.312 22.899
          82 1 3 0.032725088723772854 17.97 31.199 21.158
          83 1 3 0.032725088723772854 17.853 29.455 21.568
          84 1 3 0.032725088723772854 19.203 28.892 19.481
          85 1 3 0.032725088723772854 19.243 30.629 19.074
          86 1 3 0.032725088723772854 17.502 29.613 17.759
          87 1 3 0.032725088723772854 16.77 30.73 18.931
          88 1 3 0.032725088723772854 15.997 28.886 20.357
          89 1 3 0.032725088723772854 15.432 28.641 18.705
          90 1 3 0.032725088723772854 17.767 27.184 20.1
          91 1 3 0.032725088723772854 16.171 26.516 19.71
          92 1 3 0.032725088723772854 18.282 27.399 17.611
          93 1 3 0.032725088723772854 17.999 25.754 18.197
          94 1 3 0.032725088723772854 16.694 25.565 16.351
          95 1 3 0.032725088723772854 15.433 26.231 17.433
          96 1 3 0.032725088723772854 17.221 27.955 15.582
          97 1 3 0.032725088723772854 15.768 28.51 16.472
          98 1 3 0.032725088723772854 15.357 28.154 14.06
          99 1 3 0.032725088723772854 15.826 26.431 14.192
         100 1 3 0.032725088723772854 13.5 27.656 15.839
         101 1 3 0.032725088723772854 13.922 25.924 15.634
         102 1 3 0.032725088723772854 13.557 26.319 13.054
         103 1 3 0.032725088723772854 12.145 26.143 14.145
         104 1 3 0.032725088723772854 13.292 28.884 13.325
         105 1 3 0.032725088723772854 11.778 28.555 14.245
         106 1 3 0.032725088723772854 12.394 27.801 11.308
         107 1 3 0.032725088723772854 10.964 27.208 12.201
         108 1 3 0.032725088723772854 10.34 29.141 10.831
         109 1 3 0.032725088723772854 10.122 29.481 12.563
         110 1 3 0.032725088723772854 12.148 30.868 12.648
         111 1 3 0.032725088723772854 11.056 31.44 11.374
         112 1 3 0.032725088723772854 13.66 29.821 11.003
         113 1 3 0.032725088723772854 13.382 31.533 10.603
         114 1 3 0.032725088723772854 13.4 30.147 8.581
         115 1 3 0.032725088723772854 12.097 29.096 9.214
         116 1 3 0.032725088723772854 11.747 32.138 8.776
         117 1 3 0.032725088723772854 10.453 30.932 9.087
         118 1 3 0.032725088723772854 10.531 31.627 6.719
         119 1 3 0.032725088723772854 12.244 31.107 6.573
         120 1 3 0.032725088723772854 11.623 28.748 6.935
         121 1 3 0.032725088723772854 9.927 29.203 7.328
         122 1 3 0.032725088723772854 11.379 29.632 4.636
         123 1 3 0.032725088723772854 9.69 30.128 4.955
         124 1 3 0.032725088723772854 10.359 27.195 5.549
         125 1 3 0.032725088723772854 10.494 27.701 3.848
         126 1 3 0.032725088723772854 8.303 26.826 4.176
         127 1 3 0.032725088723772854 8.145 28.588 3.88
         128 1 3 0.032725088723772854 8.061 27.22 6.669
         129 1 3 0.032725088723772854 7.877 28.979 6.344
         130 1 3 0.032725088723772854 5.689 28.12 6.677
         131 1 3 0.032725088723772854 5.842 28.518 4.934
         132 1 3 0.032725088723772854 6.153 26.131 4.372
         133 1 3 0.032725088723772854 6.192 25.675 6.119
         134 1 3 0.032725088723772854 3.852 26.497 6.393
         135 1 3 0.032725088723772854 3.786 26.986 4.668
         136 1 3 0.03272508872377283 4.273 24.09 5.669
         137 1 3 0.03272508872377283 2.67 24.775 5.237
         138 1 3 0.03272508872375067 3.59 25.311 2.91
         139 1 3 0.03272508872375067 5.082 24.389 3.35
         140 1 3 0.032725088711950574 2.196 23.282 3.259
         141 1 3 0.032725088711950574 3.608 22.384 3.886
         142 1 3 0.03272508565556845 4.758 22.479 1.721
         143 1 3 0.03272508565556845 3.16 21.715 1.567
         144 1 3 0.03272470591766552 3.966 24.57 0.702
         145 1 3 0.03272470591766552 3.6 23.187 -0.354
         146 1 3 0.03270259347591514 1.756 24.83 -0.292
         147 1 3 0.03270259347591514 1.571 24.646 1.474
         148 1 3 0.0321908035406296 1.215 22.364 -0.595
         149 1 3 0.0321908035406296 0.9 22.25 1.178
         150 1 3 0.027287831691225867 -1.21 22.56 -0.06
         151 1 3 0.027287831691225867 -0.587 24.08 -0.807
         152 1 3 0.027287831691225867 -0.881 23.997 0.981
         153 2 2 -0.0768792180491662 17.793 35.593 31.767
         154 2 2 -0.06895447305501981 17.691 34.068 31.786
         155 2 2 -0.06580140005508675 16.238 33.57 31.741
         156 2 2 -0.06546435133643977 15.473 33.866 33.045
         157 2 2 -0.06545042768651546 14.125 33.13 33.113
         158 2 2 -0.06545017948692887 13.089 33.707 32.136
         159 2 2 -0.06545017745546566 11.713 33.034 32.265
         160 2 2 -0.06545017744756064 11.718 31.588 31.747
         161 2 2 -0.06545017744754572 10.296 31.022 31.655
         162 2 2 -0.06545017744754571 10.32 29.574 31.151
         163 2 2 -0.06545017744754571 8.896 29.027 30.96
         164 2 2 -0.06545017744754571 8.88 27.528 30.621
         165 2 2 -0.06545017744754571 9.478 27.227 29.238
         166 2 2 -0.06545017744754571 9.327 25.746 28.876
         167 2 2 -0.06545017744754571 9.955 25.451 27.505
         168 2 2 -0.06545017744754571 9.964 23.954 27.16
         169 2 2 -0.06545017744754571 8.562 23.414 26.836
         170 2 2 -0.06545017744754571 8.57 21.927 26.438
         171 2 2 -0.06545017744754571 9.332 21.597 25.137
         172 2 2 -0.06545017744754571 8.888 22.393 23.894
         173 2 2 -0.06545017744754571 7.396 22.269 23.532
         174 2 2 -0.06545017744754571 6.985 20.869 23.029
         175 2 2 -0.06545017744754571 6.362 19.997 24.133
         176 2 2 -0.06545017744754571 5.69 18.729 23.583
         177 2 2 -0.06545017744754571 6.686 17.778 22.895
         178 2 2 -0.06545017744754571 6.053 16.414 22.577
         179 2 2 -0.06545017744754571 6.101 15.46 23.782
         180 2 2 -0.06545017744754571 5.318 14.172 23.491
         181 2 2 -0.06545017744754571 5.552 13.075 24.544
         182 2 2 -0.06545017744754571 5.18 13.463 25.988
         183 2 2 -0.06545017744754571 3.728 13.942 26.187
         184 2 2 -0.06545017744754571 2.649 12.959 25.705
         185 2 2 -0.06545017744754571 2.738 11.584 26.389
         186 2 2 -0.06545017744754571 1.484 10.725 26.159
         187 2 2 -0.06545017744754571 1.232 10.426 24.674
         188 2 2 -0.06545017744754571 0.099 9.405 24.501
         189 2 2 -0.06545017744754571 -0.19 9.1 23.015
         190 2 2 -0.06545017744754571 0.365 7.747 22.541
         191 2 2 -0.06545017744754571 1.901 7.715 22.495
         192 2 2 -0.06545017744754571 2.455 6.369 22.004
         193 2 2 -0.06545017744754571 2.194 6.122 20.51
         194 2 2 -0.06545017744754572 2.927 4.861 20.03
         195 2 2 -0.06545017744756064 2.688 4.565 18.541
         196 2 2 -0.06545017745546566 1.256 4.085 18.26
         197 2 2 -0.06545017948692887 1.118 3.573 16.818
         198 2 2 -0.06545042768651546 -0.339 3.269 16.428
         199 2 2 -0.06546435133643977 -1.047 2.215 17.306
         200 2 2 -0.06580140005508675 -0.331 0.856 17.396
         201 2 2 -0.06895447305501981 -0.206 0.158 16.035
         202 2 2 -0.0768792180491662 0.367 -1.248 16.189
         203 2 3 0.027287831691225867 17.249 36.008 30.891
         204 2 3 0.027287831691225867 17.378 36.025 32.699
         205 2 3 0.027287831691225867 18.86 35.891 31.693
         206 2 3 0.0321908035406296 18.224 33.672 30.894
         207 2 3 0.0321908035406296 18.206 33.671 32.687
         208 2 3 0.03270259347591514 16.261 32.47 31.575
         209 2 3 0.03270259347591514 15.718 34.033 30.877
         210 2 3 0.03272470591766552 15.304 34.958 33.151
         211 2 3 0.03272470591766552 16.089 33.532 33.909
         212 2 3 0.03272508565556845 13.73 33.223 34.148
         213 2 3 0.03272508565556845 14.29 32.05 32.914
         214 2 3 0.032725088711950574 13.444 33.607 31.088
         215 2 3 0.032725088711950574 12.964 34.793 32.346
         216 2 3 0.03272508872375067 10.985 33.629 31.67
         217 2 3 0.03272508872375067 11.377 33.054 33.325
         218 2 3 0.03272508872377283 12.315 30.949 32.433
         219 2 3 0.03272508872377283 12.186 31.558 30.737
         220 2 3 0.032725088723772854 9.818 31.056 32.66
         221 2 3 0.032725088723772854 9.696 31.646 30.956
         222 2 3 0.032725088723772854 10.859 29.545 30.18
         223 2 3 0.032725088723772854 10.867 28.94 31.883
         224 2 3 0.032725088723772854 8.324 29.171 31.902
         225 2 3 0.032725088723772854 8.378 29.598 30.16
         226 2 3 0.032725088723772854 9.433 26.961 31.401
         227 2 3 0.032725088723772854 7.824 27.183 30.639
         228 2 3 0.032725088723772854 10.559 27.483 29.236
         229 2 3 0.032725088723772854 8.965 27.847 28.469
         230 2 3 0.032725088723772854 8.246 25.489 28.858
         231 2 3 0.032725088723772854 9.827 25.125 29.654
         232 2 3 0.032725088723772854 9.416 26.016 26.713
         233 2 3 0.032725088723772854 11.01 25.805 27.512
         234 2 3 0.032725088723772854 10.41 23.374 27.999
         235 2 3 0.032725088723772854 10.621 23.827 26.275
         236 2 3 0.032725088723772854 8.09 24.025 26.037
         237 2 3 0.032725088723772854 7.92 23.509 27.736
         238 2 3 0.032725088723772854 7.519 21.585 26.348
         239 2 3 0.032725088723772854 9.019 21.337 27.267
         240 2 3 0.032725088723772854 10.417 21.77 25.295
         241 2 3 0.032725088723772854 9.238 20.512 24.926
         242 2 3 0.032725088723772854 9.132 23.467 24.045
         243 2 3 0.032725088723772854 9.498 22.061 23.028
         244 2 3 0.032725088723772854 6.753 22.606 24.372
         245 2 3 0.032725088723772854 7.209 22.989 22.706
         246 2 3 0.032725088723772854 6.23 21.0 22.222
         247 2 3 0.032725088723772854 7.859 20.351 22.581
         248 2 3 0.032725088723772854 5.583 20.582 24.67
         249 2 3 0.032725088723772854 7.128 19.698 24.876
         250 2 3 0.032725088723772854 5.204 18.209 24.436
         251 2 3 0.032725088723772854 4.889 19.012 22.866
         252 2 3 0.032725088723772854 7.593 17.641 23.525
         253 2 3 0.032725088723772854 7.009 18.237 21.936
         254 2 3 0.032725088723772854 5.004 16.553 22.236
         255 2 3 0.032725088723772854 6.618 15.949 21.74
         256 2 3 0.032725088723772854 5.663 15.957 24.672
         257 2 3 0.032725088723772854 7.162 15.212 24.004
         258 2 3 0.032725088723772854 4.235 14.402 23.412
         259 2 3 0.032725088723772854 5.639 13.766 22.506
         260 2 3 0.032725088723772854 4.983 12.169 24.245
         261 2 3 0.032725088723772854 6.626 12.789 24.525
         262 2 3 0.032725088723772854 5.868 14.261 26.341
         263 2 3 0.032725088723772854 5.367 12.589 26.646
         264 2 3 0.032725088723772854 3.585 14.913 25.668
         265 2 3 0.032725088723772854 3.573 14.139 27.271
         266 2 3 0.032725088723772854 1.657 13.411 25.925
         267 2 3 0.032725088723772854 2.721 12.842 24.604
         268 2 3 0.032725088723772854 2.864 11.724 27.484
         269 2 3 0.032725088723772854 3.628 11.031 26.013
         270 2 3 0.032725088723772854 1.623 9.768 26.707
         271 2 3 0.032725088723772854 0.598 11.238 26.594
         272 2 3 0.032725088723772854 0.943 11.366 24.156
         273 2 3 0.032725088723772854 2.165 10.047 24.21
         274 2 3 0.032725088723772854 -0.823 9.829 24.96
         275 2 3 0.032725088723772854 0.337 8.47 25.055
         276 2 3 0.032725088723772854 0.185 9.914 22.354
         277 2 3 0.032725088723772854 -1.293 9.071 22.878
         278 2 3 0.032725088723772854 -0.038 7.566 21.523
         279 2 3 0.032725088723772854 -0.013 6.935 23.202
         280 2 3 0.032725088723772854 2.281 8.538 21.851
         281 2 3 0.032725088723772854 2.293 7.872 23.521
         282 2 3 0.032725088723772854 3.553 6.369 22.183
         283 2 3 0.032725088723772854 2.017 5.542 22.605
         284 2 3 0.032725088723772854 1.105 5.994 20.353
         285 2 3 0.032725088723772854 2.543 6.997 19.919
         286 2 3 0.032725088723772854 4.02 5.003 20.182
         287 2 3 0.032725088723772854 2.618 3.983 20.642
         288 2 3 0.03272508872377283 2.91 5.471 17.935
         289 2 3 0.03272508872377283 3.401 3.769 18.234
         290 2 3 0.03272508872375067 1.001 3.266 18.966
         291 2 3 0.03272508872375067 0.544 4.925 18.412
         292 2 3 0.032725088711950574 1.751 2.671 16.672
         293 2 3 0.032725088711950574 1.498 4.353 16.122
         294 2 3 0.03272508565556845 -0.925 4.212 16.478
         295 2 3 0.03272508565556845 -0.364 2.941 15.368
         296 2 3 0.03272470591766552 -1.177 2.618 18.332
         297 2 3 0.03272470591766552 -2.07 2.054 16.902
         298 2 3 0.03270259347591514 -0.924 0.208 18.077
         299 2 3 0.03270259347591514 0.672 0.977 17.856
         300 2 3 0.0321908035406296 -1.205 0.089 15.553
         301 2 3 0.0321908035406296 0.467 0.739 15.37
         302 2 3 0.027287831691225867 0.467 -1.72 15.188
         303 2 3 0.027287831691225867 -0.308 -1.874 16.809
         304 2 3 0.027287831691225867 1.371 -1.205 16.662
         305 3 2 -0.0768792180491662 31.673 18.031 32.882
         306 3 2 -0.06895447305501981 31.614 17.403 31.49
         307 3 2 -0.06580140005508675 30.668 16.193 31.424
         308 3 2 -0.06546435133643977 31.21 14.978 32.2
         309 3 2 -0.06545042768651546 30.416 13.694 31.906
         310 3 2 -0.06545017948692887 29.009 13.718 32.525
         311 3 2 -0.06545017745546566 28.246 12.401 32.311
         312 3 2 -0.06545017744756064 27.835 12.193 30.845
         313 3 2 -0.06545017744754572 26.871 11.01 30.697
         314 3 2 -0.06545017744754571 26.483 10.808 29.228
         315 3 2 -0.06545017744754571 25.441 9.689 29.075
         316 3 2 -0.06545017744754571 25.156 9.343 27.604
         317 3 2 -0.06545017744754571 24.448 10.482 26.855
         318 3 2 -0.06545017744754571 24.062 10.056 25.434
         319 3 2 -0.06545017744754571 23.382 11.212 24.684
         320 3 2 -0.06545017744754571 23.109 10.888 23.207
         321 3 2 -0.06545017744754571 21.976 9.865 23.026
         322 3 2 -0.06545017744754571 21.661 9.575 21.548
         323 3 2 -0.06545017744754571 21.118 10.775 20.742
         324 3 2 -0.06545017744754571 19.876 11.462 21.341
         325 3 2 -0.06545017744754571 18.66 10.544 21.566
         326 3 2 -0.06545017744754571 18.002 10.041 20.263
         327 3 2 -0.06545017744754571 18.468 8.631 19.864
         328 3 2 -0.06545017744754571 17.612 8.013 18.749
         329 3 2 -0.06545017744754571 17.69 8.803 17.43
         330 3 2 -0.06545017744754571 17.038 8.043 16.264
         331 3 2 -0.06545017744754571 18.002 7.033 15.621
         332 3 2 -0.06545017744754571 17.277 6.175 14.574
         333 3 2 -0.06545017744754571 18.238 5.339 13.712
         334 3 2 -0.06545017744754571 19.135 4.359 14.494
         335 3 2 -0.06545017744754571 18.387 3.356 15.393
         336 3 2 -0.06545017744754571 17.33 2.503 14.674
         337 3 2 -0.06545017744754571 17.91 1.678 13.513
         338 3 2 -0.06545017744754571 16.942 0.594 13.013
         339 3 2 -0.06545017744754571 15.623 1.174 12.481
         340 3 2 -0.06545017744754571 14.773 0.087 11.808
         341 3 2 -0.06545017744754571 13.431 0.639 11.282
         342 3 2 -0.06545017744754571 13.399 0.839 9.757
         343 3 2 -0.06545017744754571 14.322 1.973 9.285
         344 3 2 -0.06545017744754571 14.277 2.186 7.764
         345 3 2 -0.06545017744754571 12.946 2.783 7.282
         346 3 2 -0.06545017744754572 13.021 3.15 5.793
         347 3 2 -0.06545017744756064 11.707 3.743 5.26
         348 3 2 -0.06545017745546566 10.589 2.694 5.153
         349 3 2 -0.06545017948692887 9.375 3.256 4.399
         350 3 2 -0.06545042768651546 8.157 2.315 4.441
         351 3 2 -0.06546435133643977 8.393 0.911 3.846
         352 3 2 -0.06580140005508675 8.902 0.896 2.394
         353 3 2 -0.06895447305501981 7.913 1.536 1.411
         354 3 2 -0.0768792180491662 8.382 1.363 -0.031
         355 3 3 0.027287831691225867 30.652 18.295 33.233
         356 3 3 0.027287831691225867 32.144 17.335 33.606
         357 3 3 0.027287831691225867 32.284 18.957 32.844
         358 3 3 0.0321908035406296 31.248 18.173 30.777
         359 3 3 0.0321908035406296 32.636 17.108 31.17
         360 3 3 0.03270259347591514 30.545 15.917 30.354
         361 3 3 0.03270259347591514 29.671 16.486 31.816
         362 3 3 0.03272470591766552 31.194 15.181 33.291
         363 3 3 0.03272470591766552 32.267 14.801 31.902
         364 3 3 0.03272508565556845 30.978 12.834 32.33
         365 3 3 0.03272508565556845 30.356 13.547 30.807
         366 3 3 0.032725088711950574 28.413 14.555 32.103
         367 3 3 0.032725088711950574 29.102 13.89 33.62
         368 3 3 0.03272508872375067 27.33 12.431 32.942
         369 3 3 0.03272508872375067 28.863 11.542 32.655
         370 3 3 0.03272508872377283 28.739 11.999 30.23
         371 3 3 0.03272508872377283 27.339 13.115 30.466
         372 3 3 0.032725088723772854 27.357 10.086 31.082
         373 3 3 0.032725088723772854 25.954 11.206 31.297
         374 3 3 0.032725088723772854 26.062 11.76 28.837
         375 3 3 0.032725088723772854 27.392 10.552 28.64
         376 3 3 0.032725088723772854 25.819 8.771 29.576
         377 3 3 0.032725088723772854 24.496 9.983 29.581
         378 3 3 0.032725088723772854 26.107 9.087 27.089
         379 3 3 0.032725088723772854 24.508 8.44 27.584
         380 3 3 0.032725088723772854 25.123 11.361 26.789
         381 3 3 0.032725088723772854 23.532 10.779 27.411
         382 3 3 0.032725088723772854 23.37 9.188 25.494
         383 3 3 0.032725088723772854 24.977 9.744 24.883
         384 3 3 0.032725088723772854 22.43 11.485 25.191
         385 3 3 0.032725088723772854 24.049 12.102 24.719
         386 3 3 0.032725088723772854 24.038 10.515 22.722
         387 3 3 0.032725088723772854 22.826 11.84 22.711
         388 3 3 0.032725088723772854 21.061 10.207 23.556
         389 3 3 0.032725088723772854 22.278 8.904 23.492
         390 3 3 0.032725088723772854 20.931 8.741 21.504
         391 3 3 0.032725088723772854 22.584 9.207 21.051
         392 3 3 0.032725088723772854 21.921 11.534 20.633
         393 3 3 0.032725088723772854 20.888 10.444 19.709
         394 3 3 0.032725088723772854 20.153 11.934 22.308
         395 3 3 0.032725088723772854 19.579 12.297 20.67
         396 3 3 0.032725088723772854 18.917 9.704 22.244
         397 3 3 0.032725088723772854 17.903 11.148 22.112
         398 3 3 0.032725088723772854 16.901 10.011 20.423
         399 3 3 0.032725088723772854 18.195 10.757 19.436
         400 3 3 0.032725088723772854 18.405 7.958 20.747
         401 3 3 0.032725088723772854 19.525 8.647 19.531
         402 3 3 0.032725088723772854 17.969 6.974 18.585
         403 3 3 0.032725088723772854 16.553 7.95 19.082
         404 3 3 0.032725088723772854 18.747 9.046 17.184
         405 3 3 0.032725088723772854 17.146 9.764 17.559
         406 3 3 0.032725088723772854 16.117 7.528 16.616
         407 3 3 0.032725088723772854 16.734 8.779 15.488
         408 3 3 0.032725088723772854 18.426 6.37 16.403
         409 3 3 0.032725088723772854 18.836 7.588 15.139
         410 3 3 0.032725088723772854 16.54 5.515 15.078
         411 3 3 0.032725088723772854 16.706 6.841 13.89
         412 3 3 0.032725088723772854 17.643 4.777 12.961
         413 3 3 0.032725088723772854 18.893 6.03 13.139
         414 3 3 0.032725088723772854 19.846 4.938 15.123
         415 3 3 0.032725088723772854 19.761 3.799 13.767
         416 3 3 0.032725088723772854 17.899 3.902 16.229
         417 3 3 0.032725088723772854 19.137 2.678 15.857
         418 3 3 0.032725088723772854 16.885 1.812 15.424
         419 3 3 0.032725088723772854 16.514 3.159 14.305
         420 3 3 0.032725088723772854 18.845 1.178 13.846
         421 3 3 0.032725088723772854 18.169 2.35 12.664
         422 3 3 0.032725088723772854 17.45 0.033 12.198
         423 3 3 0.032725088723772854 16.731 -0.124 13.836
         424 3 3 0.032725088723772854 15.044 1.601 13.328
         425 3 3 0.032725088723772854 15.842 1.991 11.763
         426 3 3 0.032725088723772854 14.558 -0.702 12.564
         427 3 3 0.032725088723772854 15.349 -0.396 10.988
         428 3 3 0.032725088723772854 13.154 1.588 11.792
         429 3 3 0.032725088723772854 12.634 -0.095 11.535
         430 3 3 0.032725088723772854 12.351 1.078 9.48
         431 3 3 0.032725088723772854 13.673 -0.112 9.249
         432 3 3 0.032725088723772854 14.062 2.92 9.808
         433 3 3 0.032725088723772854 15.37 1.714 9.545
         434 3 3 0.032725088723772854 15.102 2.881 7.495
         435 3 3 0.032725088723772854 14.467 1.221 7.246
         436 3 3 0.032725088723772854 12.141 2.036 7.435
         437 3 3 0.032725088723772854 12.708 3.695 7.873
         438 3 3 0.032725088723772854 13.823 3.907 5.651
         439 3 3 0.032725088723772854 13.299 2.254 5.193
         440 3 3 0.03272508872377283 11.378 4.581 5.912
         441 3 3 0.03272508872377283 11.908 4.158 4.248
         442 3 3 0.03272508872375067 10.976 1.803 4.613
         443 3 3 0.03272508872375067 10.268 2.385 6.171
         444 3 3 0.032725088711950574 9.65 3.481 3.347
         445 3 3 0.032725088711950574 9.073 4.218 4.87
         446 3 3 0.03272508565556845 7.836 2.195 5.498
         447 3 3 0.03272508565556845 7.311 2.802 3.911
         448 3 3 0.03272470591766552 9.115 0.358 4.483
         449 3 3 0.03272470591766552 7.438 0.345 3.895
         450 3 3 0.03270259347591514 9.059 -0.166 2.103
         451 3 3 0.03270259347591514 9.889 1.4 2.325
         452 3 3 0.0321908035406296 6.912 1.066 1.522
         453 3 3 0.0321908035406296 7.819 2.623 1.619
         454 3 3 0.027287831691225867 7.66 1.854 -0.718
         455 3 3 0.027287831691225867 8.441 0.285 -0.291
         456 3 3 0.027287831691225867 9.38 1.832 -0.171
         457 4 2 -0.0768792180491662 32.929 0.894 8.288
         458 4 2 -0.06895447305501981 32.388 2.323 8.318
         459 4 2 -0.06580140005508675 31.129 2.499 7.453
         460 4 2 -0.06546435133643977 31.43 2.401 5.946
         461 4 2 -0.06545042768651546 30.243 2.852 5.081
         462 4 2 -0.06545017948692887 29.074 1.853 5.118
         463 4 2 -0.06545017745546566 27.922 2.254 4.184
         464 4 2 -0.06545017744756064 27.165 3.493 4.686
         465 4 2 -0.06545017744754572 25.88 3.727 3.883
         466 4 2 -0.06545017744754571 25.145 4.974 4.387
         467 4 2 -0.06545017744754571 23.806 5.165 3.657
         468 4 2 -0.06545017744754571 23.123 6.496 4.013
         469 4 2 -0.06545017744754571 22.65 6.545 5.474
         470 4 2 -0.06545017744754571 21.859 7.826 5.759
         471 4 2 -0.06545017744754571 21.417 7.879 7.23
         472 4 2 -0.06545017744754571 20.75 9.211 7.607
         473 4 2 -0.06545017744754571 19.349 9.366 6.992
         474 4 2 -0.06545017744754571 18.653 10.674 7.407
         475 4 2 -0.06545017744754571 18.34 10.804 8.913
         476 4 2 -0.06545017744754571 17.521 9.647 9.517
         477 4 2 -0.06545017744754571 16.162 9.38 8.844
         478 4 2 -0.06545017744754571 15.121 10.498 9.064
         479 4 2 -0.06545017744754571 15.043 11.483 7.884
         480 4 2 -0.06545017744754571 13.822 12.412 7.963
         481 4 2 -0.06545017744754571 13.853 13.332 9.197
         482 4 2 -0.06545017744754571 12.768 14.419 9.131
         483 4 2 -0.06545017744754571 13.222 15.639 8.312
         484 4 2 -0.06545017744754571 12.066 16.631 8.123
         485 4 2 -0.06545017744754571 12.522 17.984 7.55
         486 4 2 -0.06545017744754571 13.226 17.912 6.181
         487 4 2 -0.06545017744754571 12.42 17.225 5.062
         488 4 2 -0.06545017744754571 11.026 17.821 4.806
         489 4 2 -0.06545017744754571 11.068 19.315 4.441
         490 4 2 -0.06545017744754571 9.735 19.825 3.872
         491 4 2 -0.06545017744754571 8.571 19.68 4.864
         492 4 2 -0.06545017744754571 7.309 20.382 4.341
         493 4 2 -0.06545017744754571 6.117 20.235 5.31
         494 4 2 -0.06545017744754571 5.822 21.505 6.126
         495 4 2 -0.06545017744754571 6.922 21.824 7.151
         496 4 2 -0.06545017744754571 6.62 23.082 7.979
         497 4 2 -0.06545017744754571 5.46 22.885 8.968
         498 4 2 -0.06545017744754572 5.323 24.1 9.897
         499 4 2 -0.06545017744756064 4.168 23.954 10.9
         500 4 2 -0.06545017745546566 2.79 24.057 10.228
         501 4 2 -0.06545017948692887 1.67 24.148 11.276
         502 4 2 -0.06545042768651546 0.264 24.051 10.658