LAMMPS data file Created by PSP

        4996  atoms
        4952  bonds
        9024  angles
       11556  dihedrals
         396  impropers

          12  atom types
          13  bond types
          19  angle types
          16  dihedral types
           2  improper types

           0  41.681691958899975 xlo xhi
           0  41.681691958899975 ylo yhi
           0  41.681691958899975 zlo zhi

Masses

           1  12.01 # c3
           2  16.0 # os
           3  12.01 # c
           4  16.0 # o
           5  1.008 # h1
           6  1.008 # hc
           7  12.01 # c3
           8  12.01 # c
           9  16.0 # o
          10  16.0 # os
          11  1.008 # hc
          12  1.008 # h1

Pair Coeffs

           1  0.1078 3.397709531243626 # c3
           2  0.0726 3.156097798883966 # os
           3  0.0988 3.3152123099438304 # c
           4  0.1463 3.048120874245357 # o
           5  0.0208 2.4219972551363265 # h1
           6  0.0208 2.600176998764394 # hc
           7  0.1078 3.397709531243626 # c3
           8  0.0988 3.3152123099438304 # c
           9  0.1463 3.048120874245357 # o
          10  0.0726 3.156097798883966 # os
          11  0.0208 2.600176998764394 # hc
          12  0.0208 2.4219972551363265 # h1

Bond Coeffs

           1  284.76 1.432 # c3,os
           2  243.22 1.524 # c,c3
           3  372.94 1.358 # c,os
           4  652.57 1.218 # c,o
           5  375.92 1.097 # c3,h1
           6  375.92 1.097 # c3,hc
           7  375.92 1.097 # c3,hc
           8  372.94 1.358 # c,os
           9  232.52 1.538 # c3,c3
          10  243.22 1.524 # c,c3
          11  284.76 1.432 # c3,os
          12  652.57 1.218 # c,o
          13  375.92 1.097 # c3,h1

Angle Coeffs

           1  66.906 115.98 # c,os,c3
           2  84.552 123.2 # c3,c,o
           3  38.96 107.58 # hc,c3,hc
           4  47.411 108.77 # c,c3,hc
           5  114.822 123.25 # o,c,os
           6  62.377 109.78 # h1,c3,os
           7  86.419 110.72 # c3,c,os
           8  38.802 108.46 # h1,c3,h1
           9  62.377 109.78 # h1,c3,os
          10  86.419 110.72 # c3,c,os
          11  38.96 107.58 # hc,c3,hc
          12  47.411 108.77 # c,c3,hc
          13  38.802 108.46 # h1,c3,h1
          14  46.816 109.8 # c3,c3,hc
          15  114.822 123.25 # o,c,os
          16  66.906 115.98 # c,os,c3
          17  64.888 111.51 # c3,c3,c3
          18  84.552 123.2 # c3,c,o
          19  65.307 111.04 # c,c3,c3

Dihedral Coeffs

           1  1 0.0 2 180 # X,c,c3,X
           2  2 0.83 1 0 0.04 3 180 # o,c,c3,hc
           3  3 1.58 1 180 3.18 2 180 0.73 3 0 # c3,os,c,c3
           4  1 0.3833333333333333 3 0 # X,c3,os,X
           5  2 2.7 2 180 1.4 1 180 # o,c,os,c3
           6  1 0.1 3 0 # c,c3,c3,c3
           7  2 2.7 2 180 1.4 1 180 # o,c,os,c3
           8  1 0.3833333333333333 3 0 # X,c3,os,X
           9  3 1.58 1 180 3.18 2 180 0.73 3 0 # c3,os,c,c3
          10  1 0.12 3 0 # hc,c3,c3,hc
          11  4 0.27 2 180 0.03 2 180 0.55 3 180 0.74 1 0 # o,c,c3,c3
          12  1 0.0 2 180 # X,c,c3,X
          13  2 0.83 1 0 0.04 3 180 # o,c,c3,hc
          14  2 0.08 3 0 0.08 3 0 # hc,c3,c3,c3
          15  1 0.15555555555555556 3 0 # X,c3,c3,X
          16  3 0.13 3 0 0.29 2 180 0.11 1 0 # c3,c3,c3,c3

Improper Coeffs

           1  10.5 -1 2 # c,X,X,o
           2  10.5 -1 2 # c,X,X,o

Atoms

       1       1   1 0.012322991272169738     29.936     12.076     12.312
       2       1   2 -0.32742035638003364     30.074     13.078     13.314
       3       1   3 0.25223053001122375     30.566     14.356     13.037
       4       1   1 0.0036035942970514454     30.664      15.36     14.134
       5       1   4 -0.2675243231737271     30.888     14.682     11.862
       6       1   5 0.06730477192431294     29.235     12.423     11.523
       7       1   5 0.06730477192431294      29.53     11.153     12.773
       8       1   5 0.06730477192431294     30.925      11.85     11.862
       9       1   6 0.04162441606679236     30.734     14.844     15.115
      10       1   6 0.04162441606679236     31.567      15.99     13.996
      11       1   6 0.04162441606679236     29.761     16.006     14.127
      12       2   1 0.012322991272169738     29.643      8.686     16.282
      13       2   2 -0.32742035638003364     29.763      9.945     16.934
      14       2   3 0.25223053001122375     30.098     11.118      16.25
      15       2   1 0.0036035942970514454     30.187     12.404     16.997
      16       2   4 -0.2675243231737271     30.284     11.105     15.003
      17       2   5 0.06730477192431294     28.846      8.733      15.51
      18       2   5 0.06730477192431294     29.374      7.913      17.03
      19       2   5 0.06730477192431294     30.608      8.409     15.808
      20       2   6 0.04162441606679236     30.392     12.207      18.07
      21       2   6 0.04162441606679236     31.007     13.029     16.585
      22       2   6 0.04162441606679236     29.226     12.952     16.905
      23       3   1 0.012322991272169738     39.647      39.69     34.096
      24       3   2 -0.32742035638003364     39.577     39.814      32.68
      25       3   3 0.25223053001122375     39.939     38.777     31.816
      26       3   1 0.0036035942970514454     39.821     38.973     30.343
      27       3   4 -0.2675243231737271     40.323     37.665     32.269
      28       3   5 0.06730477192431294     38.983     38.869     34.438
      29       3   5 0.06730477192431294     39.313      40.64     34.561
      30       3   5 0.06730477192431294     40.692     39.483     34.409
      31       3   6 0.04162441606679236     39.864     40.056     30.099
      32       3   6 0.04162441606679236     40.653     38.455     29.821
      33       3   6 0.04162441606679236     38.853     38.559     29.991
      34       4   1 0.012322991272169738     31.696      8.637      9.733
      35       4   2 -0.32742035638003364     33.005      8.172     10.045
      36       4   3 0.25223053001122375     33.482      6.929       9.62
      37       4   1 0.0036035942970514454     34.872      6.517      9.968
      38       4   4 -0.2675243231737271     32.766      6.171       8.91
      39       4   5 0.06730477192431294     31.572      8.711      8.631
      40       4   5 0.06730477192431294     31.551      9.641     10.179
      41       4   5 0.06730477192431294     30.937      7.943      10.15
      42       4   6 0.04162441606679236     35.212      7.059     10.876
      43       4   6 0.04162441606679236     34.908      5.425     10.169
      44       4   6 0.04162441606679236     35.552      6.758      9.125
      45       5   1 0.012322991272169738     32.232       5.68     15.486
      46       5   2 -0.32742035638003364     32.494      4.418     14.882
      47       5   3 0.25223053001122375      32.19      3.207     15.509
      48       5   1 0.0036035942970514454     32.476      1.923     14.807
      49       5   4 -0.2675243231737271     31.639      3.188     16.644
      50       5   5 0.06730477192431294     31.143      5.791     15.676
      51       5   5 0.06730477192431294     32.561      6.487       14.8
      52       5   5 0.06730477192431294      32.79      5.768     16.441
      53       5   6 0.04162441606679236      33.28      2.073     14.056
      54       5   6 0.04162441606679236     32.806      1.154     15.536
      55       5   6 0.04162441606679236     31.558      1.571     14.292
      56       6   1 0.012322991272169738      28.92      9.744      9.362
      57       6   2 -0.32742035638003364     29.729     10.072      8.238
      58       6   3 0.25223053001122375     29.685      9.348      7.043
      59       6   1 0.0036035942970514454     30.547      9.762      5.901
      60       6   4 -0.2675243231737271     28.894      8.375      6.908
      61       6   5 0.06730477192431294     27.845      9.819      9.092
      62       6   5 0.06730477192431294     29.134     10.457     10.185
      63       6   5 0.06730477192431294     29.149      8.714      9.708
      64       6   6 0.04162441606679236     31.425     10.331      6.274
      65       6   6 0.04162441606679236     30.908      8.868       5.35
      66       6   6 0.04162441606679236     29.963     10.407      5.211
      67       7   1 0.012322991272169738     30.411      5.905      8.128
      68       7   2 -0.32742035638003364     31.349      6.963      7.962
      69       7   3 0.25223053001122375     32.439      6.872      7.092
      70       7   1 0.0036035942970514454      33.37      8.028      6.955
      71       7   4 -0.2675243231737271      32.62      5.839       6.39
      72       7   5 0.06730477192431294     29.911      5.686       7.16
      73       7   5 0.06730477192431294     29.645      6.212      8.868
      74       7   5 0.06730477192431294     30.927      4.995      8.498
      75       7   6 0.04162441606679236      33.33      8.658      7.869
      76       7   6 0.04162441606679236      34.41      7.667      6.815
      77       7   6 0.04162441606679236     33.073      8.641      6.078
      78       8   1 0.012322991272169738     35.022      3.884     13.829
      79       8   2 -0.32742035638003364     36.419      3.922     14.102
      80       8   3 0.25223053001122375      37.15       2.78     14.438
      81       8   1 0.0036035942970514454     38.615      2.892     14.691
      82       8   4 -0.2675243231737271     36.594      1.649     14.489
      83       8   5 0.06730477192431294     34.823      3.223     12.959
      84       8   5 0.06730477192431294      34.67      4.908     13.591
      85       8   5 0.06730477192431294     34.471      3.511     14.718
      86       8   6 0.04162441606679236     38.868       3.93     14.996
      87       8   6 0.04162441606679236     38.917      2.197     15.502
      88       8   6 0.04162441606679236     39.171       2.64     13.764
      89       9   1 0.012322991272169738     32.717      5.647     12.319
      90       9   2 -0.32742035638003364     33.835      4.971     11.753
      91       9   3 0.25223053001122375     33.701      3.828      10.96
      92       9   1 0.0036035942970514454     34.916      3.186     10.385
      93       9   4 -0.2675243231737271     32.561       3.36     10.692
      94       9   5 0.06730477192431294     32.044      6.008     11.512
      95       9   5 0.06730477192431294     33.076      6.517     12.904
      96       9   5 0.06730477192431294     32.161      4.962     12.993
      97       9   6 0.04162441606679236     35.806       3.44     10.998
      98       9   6 0.04162441606679236     34.795      2.082     10.371
      99       9   6 0.04162441606679236     35.073      3.551      9.348
     100      10   1 0.012322991272169738     37.307     39.056     27.744
     101      10   2 -0.32742035638003364     36.319      38.43     28.556
     102      10   3 0.25223053001122375      34.98     38.829     28.554
     103      10   1 0.0036035942970514454     33.998     38.113     29.416
     104      10   4 -0.2675243231737271     34.586      39.76       27.8
     105      10   5 0.06730477192431294      37.04     38.949     26.672
     106      10   5 0.06730477192431294     38.286     38.569     27.922
     107      10   5 0.06730477192431294     37.386     40.133     28.005
     108      10   6 0.04162441606679236     34.522      37.63     30.268
     109      10   6 0.04162441606679236     33.248     38.827     29.816
     110      10   6 0.04162441606679236      33.48     37.333     28.819
     111      11   1 0.012322991272169738     27.444     10.493     14.629
     112      11   2 -0.32742035638003364     27.259     11.544      15.57
     113      11   3 0.25223053001122375     27.669     12.857     15.321
     114      11   1 0.0036035942970514454     27.424     13.911     16.347
     115      11   4 -0.2675243231737271     28.207     13.167     14.223
     116      11   5 0.06730477192431294     26.902     10.725     13.688
     117      11   5 0.06730477192431294     27.042       9.55     15.052
     118      11   5 0.06730477192431294     28.525      10.36     14.415
     119      11   6 0.04162441606679236     27.329     13.447     17.351
     120      11   6 0.04162441606679236     28.268     14.631     16.363
     121      11   6 0.04162441606679236     26.485     14.451     16.105
     122      12   1 0.012322991272169738     33.949      1.439      6.365
     123      12   2 -0.32742035638003364     34.885      1.937      5.415
     124      12   3 0.25223053001122375     35.076      1.341      4.165
     125      12   1 0.0036035942970514454     36.061       1.93      3.213
     126      12   4 -0.2675243231737271     34.395      0.338      3.818
     127      12   5 0.06730477192431294     32.924      1.471       5.94
     128      12   5 0.06730477192431294     33.981      2.073      7.274
     129      12   5 0.06730477192431294     34.208      0.396      6.643
     130      12   6 0.04162441606679236     36.825      2.513       3.77
     131      12   6 0.04162441606679236      36.57      1.124      2.644
     132      12   6 0.04162441606679236     35.534      2.604      2.505
     133      13   7 -0.07601307985093285      2.749      5.467      2.461
     134      13   7 -0.056580035393055186      3.839      4.649      1.763
     135      13   7 0.030829889862803137       4.73      3.764      2.686
     136      13   7 -0.04101401129476456      6.164      4.317      2.919
     137      13   7 0.03202713543997139      6.311      5.747      3.518
     138      13   7 -0.040969677137344555      6.372      5.855      5.076
     139      13   7 0.03202788613174109      7.392      5.013      5.905
     140      13   7 -0.04096967092716322      8.806      4.913      5.281
     141      13   7 0.03202788615589476      9.916      4.465      6.271
     142      13   7 -0.04096967092711585     11.302      4.976      5.784
     143      13   7 0.032027886155894796     12.493      4.793      6.765
     144      13   7 -0.04096967092711585     12.195      5.364      8.181
     145      13   7 0.032027886155894796     13.442      5.849      8.969
     146      13   7 -0.04096967092711585      14.41      4.688      9.328
     147      13   7 0.032027886155894796     15.699      5.056     10.109
     148      13   7 -0.04096967092711585     15.454      5.298     11.622
     149      13   7 0.032027886155894796     16.727      5.116     12.485
     150      13   7 -0.04096967092711586     16.473      5.596     13.948
     151      13   7 0.03202788615587733     17.685       6.27     14.659
     152      13   7 -0.04096967093625864     18.873      5.296     14.928
     153      13   7 0.032027883890250256     18.847       4.65     16.337
     154      13   7 -0.04096994794131394     20.147      3.835      16.57
     155      13   7 0.03201249314722184     20.325       3.18      17.97
     156      13   7 -0.04136282749725701     19.985      4.102      19.17
     157      13   7 0.02771353047241388     20.905       5.34     19.281
     158      13   7 -0.06409082151628011     20.388      6.294     20.362
     159      13   8 0.2602222616960728      22.32      4.941       19.6
     160      13   9 -0.26658803561063643     23.265      5.352     18.872
     161      13  10 -0.32679416396293115     22.577      4.132     20.712
     162      13   7 0.012354055904923274     23.889      3.712     21.067
     163      13   8 0.26064630442720105     19.594      1.864     18.061
     164      13   9 -0.2665697059871908     20.048      0.861     17.445
     165      13  10 -0.32678170359468733     18.429      1.746      18.83
     166      13   7 0.012354333526349294     17.798      0.493     19.072
     167      13   8 0.26064658599168045     17.622      3.799     16.517
     168      13   9 -0.2665697034732222      16.71      4.177     17.304
     169      13  10 -0.32678170186855365      17.48      2.613     15.789
     170      13   7 0.01235433353526158       16.3       1.82     15.845
     171      13   8 0.2606465860008583     18.136      7.541     13.962
     172      13   9 -0.2665697034732032      17.44      8.052     13.041
     173      13  10 -0.32678170186854055     19.278      8.207     14.418
     174      13   7 0.012354333535261598     19.733      9.427     13.849
     175      13   8 0.2606465860008584     17.168      3.675     12.452
     176      13   9 -0.2665697034732032      16.39      2.764     12.847
     177      13  10 -0.32678170186854055     18.435      3.356     11.952
     178      13   7 0.012354333535261598     18.941      2.026     11.945
     179      13   8 0.2606465860008584     16.445      6.195       9.46
     180      13   9 -0.2665697034732032     17.265       5.95      8.533
     181      13  10 -0.32678170186854055     16.194      7.514      9.852
     182      13   7 0.012354333535261598     16.849      8.632      9.264
     183      13   8 0.2606465860008584      12.97      6.572     10.201
     184      13   9 -0.2665697034732032     12.296      5.959     11.074
     185      13  10 -0.32678170186854055     13.286      7.924     10.368
     186      13   7 0.012354333535261598     12.929      8.654     11.535
     187      13   8 0.2606465860008584     12.964      3.359      6.785
     188      13   9 -0.2665697034732032      13.69      2.937      5.844
     189      13  10 -0.32678170186854055     12.602      2.504      7.833
     190      13   7 0.012354333535261598     13.207      1.231      8.022
     191      13   8 0.2606465860008584      9.911      2.967      6.415
     192      13   9 -0.2665697034732032      9.582      2.444      7.516
     193      13  10 -0.32678170186854055     10.259      2.166      5.322
     194      13   7 0.012354333535261598     10.236      0.745      5.372
     195      13   8 0.2606465860008109      6.811      3.688      6.337
     196      13   9 -0.2665697034732032      6.105      3.645      7.382
     197      13  10 -0.32678170186854055      7.028      2.525      5.595
     198      13   7 0.012354333535261598      6.502      1.262      5.982
     199      13   8 0.26064657974206923       7.46      6.503      2.887
     200      13   9 -0.2665697034997189      7.435      7.764      2.872
     201      13  10 -0.3267817018867745      8.558      5.816      2.355
     202      13   7 0.012354333535215624      9.715       6.48      1.862
     203      13   8 0.26060073193644273      4.048      3.267      3.939
     204      13   9 -0.2665705547665383       3.81      2.034      4.063
     205      13  10 -0.32678228458194253      3.637      4.159      4.931
     206      13   7 0.012354327428114127      2.898      3.751      6.076
     207      13  11 0.02731827173372307      3.174      6.144      3.229
     208      13  11 0.02731827173372307      2.005      4.792      2.934
     209      13  11 0.02731827173372307      2.214      6.083       1.71
     210      13  11 0.03353229703533295      4.478      5.336      1.166
     211      13  11 0.03353229703533295      3.327      3.989      1.028
     212      13  11 0.05620872374338452      4.914      2.844      2.083
     213      13  11 0.035547108142875615      6.757      3.588      3.493
     214      13  11 0.035547108142875615      6.635      4.312      1.911
     215      13  11 0.05627889755915267      5.414       6.32      3.216
     216      13  11 0.035548252964192645      5.361      5.699      5.492
     217      13  11 0.035548252964192645      6.573      6.925      5.312
     218      13  11 0.05627890690288472      7.527      5.592      6.848
     219      13  11 0.03554825300022729      8.799      4.248      4.391
     220      13  11 0.03554825300022729      9.062      5.933       4.93
     221      13  11 0.056278906902955145      9.703      4.926      7.259
     222      13  11 0.035548253000227376     11.224      6.067      5.584
     223      13  11 0.035548253000227376      11.55      4.505      4.806
     224      13  11 0.056278906902955145     13.326      5.394       6.34
     225      13  11 0.035548253000227376     11.622      4.626      8.785
     226      13  11 0.035548253000227376     11.533      6.251      8.056
     227      13  11 0.056278906902955145     13.985      6.579      8.328
     228      13  11 0.035548253000227376     14.761      4.233      8.381
     229      13  11 0.035548253000227376     13.857      3.896       9.88
     230      13  11 0.056278906902955145     16.348      4.157     10.024
     231      13  11 0.035548253000227376     15.068      6.328      11.77
     232      13  11 0.035548253000227376     14.666      4.606     11.995
     233      13  11 0.056278906902955145     17.532       5.73      12.03
     234      13  11 0.035548253000227376     16.089      4.757     14.563
     235      13  11 0.035548253000227376     15.648      6.341     13.962
     236      13  11 0.05627890690295513     17.303      6.619     15.645
     237      13  11 0.03554825300020139     18.929      4.503     14.162
     238      13  11 0.03554825300020139     19.835      5.846     14.841
     239      13  11 0.05627890688930568     18.822      5.483     17.073
     240      13  11 0.03554824959560069     21.014      4.512     16.406
     241      13  11 0.03554824959560069     20.232       3.05     15.785
     242      13  11 0.05627848305660835     21.404      2.919     18.059
     243      13  11 0.0355239768331394     18.924      4.422     19.106
     244      13  11 0.0355239768331394     20.069      3.513     20.111
     245      13  11 0.05560223291359431      20.89      5.898      18.32
     246      13  11 0.02835292430268705     19.362      6.638      20.11
     247      13  11 0.02835292430268705     20.363       5.79     21.352
     248      13  11 0.02835292430268705     21.044      7.188      20.43
     249      13  12 0.06730561578713297     24.341      3.133     20.233
     250      13  12 0.06730561578713297     23.834      3.064     21.965
     251      13  12 0.06730561578713297     24.523      4.597     21.299
     252      13  12 0.06730561922445245     18.485     -0.172     19.638
     253      13  12 0.06730561922445245     16.879      0.657     19.673
     254      13  12 0.06730561922445245     17.521      0.009     18.113
     255      13  12 0.06730561922447825     16.446      0.904     15.239
     256      13  12 0.06730561922447825     16.078      1.532     16.892
     257      13  12 0.06730561922447825     15.442      2.392     15.434
     258      13  12 0.06730561922447825     20.625      9.783     14.408
     259      13  12 0.06730561922447825     20.012      9.269     12.785
     260      13  12 0.06730561922447825     18.938       10.2     13.914
     261      13  12 0.06730561922447825     18.281      1.372     11.336
     262      13  12 0.06730561922447825       19.0      1.639     12.984
     263      13  12 0.06730561922447825     19.957      2.026     11.502
     264      13  12 0.06730561922447825     16.482      9.561      9.749
     265      13  12 0.06730561922447825     17.945      8.554      9.419
     266      13  12 0.06730561922447825     16.621      8.677      8.179
     267      13  12 0.06730561922447825     11.824      8.658     11.659
     268      13  12 0.06730561922447825     13.406      8.198     12.429
     269      13  12 0.06730561922447825     13.285      9.702     11.432
     270      13  12 0.06730561922447825     12.718      0.718      8.877
     271      13  12 0.06730561922447825     14.287      1.357      8.248
     272      13  12 0.06730561922447825      13.09      0.607       7.11
     273      13  12 0.06730561922447825     10.584      0.341      4.399
     274      13  12 0.06730561922447825     10.905      0.377      6.177
     275      13  12 0.06730561922447825      9.204      0.386      5.561
     276      13  12 0.06730561922447825      6.967      0.936      6.937
     277      13  12 0.06730561922447825      5.403      1.324       6.11
     278      13  12 0.06730561922447825      6.729      0.515      5.195
     279      13  12 0.06730561922447821     10.443      5.722      1.504
     280      13  12 0.06730561922447821      9.441      7.147      1.017
     281      13  12 0.06730561922447821     10.185      7.074      2.674
     282      13  12 0.0673056191885001      3.474        3.0      6.656
     283      13  12 0.0673056191885001      1.926      3.314      5.761
     284      13  12 0.0673056191885001      2.706      4.634      6.718
     285      14   7 -0.07601307985093285      3.673     30.764     14.569
     286      14   7 -0.056580035393055186      5.198     30.875     14.644
     287      14   7 0.030829889862803137      5.995     30.147      13.52
     288      14   7 -0.04101401129476456       6.69     28.832     13.971
     289      14   7 0.03202713543997139      5.805     27.709     14.588
     290      14   7 -0.040969677137344555      5.202     26.662     13.596
     291      14   7 0.03202788613174109      6.109      25.89     12.587
     292      14   7 -0.04096967092716322      7.465     25.416     13.167
     293      14   7 0.03202788615589476      8.166     24.306     12.339
     294      14   7 -0.04096967092711585      9.121     23.482     13.251
     295      14   7 0.032027886155894796      9.744     22.203     12.628
     296      14   7 -0.04096967092711585      8.677      21.26     12.005
     297      14   7 0.032027886155894796      9.057     19.754     11.996
     298      14   7 -0.04096967092711585     10.274     19.451     11.079
     299      14   7 0.032027886155894796     10.751     17.978     10.998
     300      14   7 -0.04096967092711585      9.863     17.092     10.084
     301      14   7 0.032027886155894796     10.593     15.832      9.556
     302      14   7 -0.04096967092711586      9.589     14.873      8.843
     303      14   7 0.03202788615587733       9.87      13.35      9.015
     304      14   7 -0.04096967093625864     11.187     12.876      8.326
     305      14   7 0.032027883890250256      10.98     12.325      6.892
     306      14   7 -0.04096994794131394     12.309     11.727      6.357
     307      14   7 0.03201249314722184     12.265     11.056      4.955
     308      14   7 -0.04136282749725701     11.059      10.11      4.722
     309      14   7 0.02771353047241388     11.044      8.881      5.661
     310      14   7 -0.06409082151628011      9.733      8.106      5.506
     311      14   8 0.2602222616960728     12.204      7.966      5.378
     312      14   9 -0.26658803561063643     12.971      7.619      6.319
     313      14  10 -0.32679416396293115     12.411      7.491      4.078
     314      14   7 0.012354055904923274     13.491      6.629       3.74
     315      14   8 0.26064630442720105     12.387     12.076       3.85
     316      14   9 -0.2665697059871908     13.501     12.628      3.639
     317      14  10 -0.32678170359468733     11.281     12.402      3.054
     318      14   7 0.012354333526349294     11.387     13.236      1.905
     319      14   8 0.26064658599168045     10.447     13.391      5.977
     320      14   9 -0.2665697034732222      9.258     13.315      5.558
     321      14  10 -0.32678170186855365     11.253     14.477      5.621
     322      14   7 0.01235433353526158     10.769     15.563      4.841
     323      14   8 0.2606465860008583      9.791     12.903     10.463
     324      14   9 -0.2665697034732032      9.341     13.677     11.352
     325      14  10 -0.32678170186854055     10.121     11.584     10.795
     326      14   7 0.012354333535261598     10.024      11.08      12.12
     327      14   8 0.2606465860008584     11.712     16.236      8.631
     328      14   9 -0.2665697034732032     11.466     16.912      7.594
     329      14  10 -0.32678170186854055     13.027     15.882      8.948
     330      14   7 0.012354333535261598     14.125     16.178      8.094
     331      14   8 0.2606465860008584     10.947     17.373     12.366
     332      14   9 -0.2665697034732032     12.048     17.532     12.962
     333      14  10 -0.32678170186854055        9.9     16.682     12.986
     334      14   7 0.012354333535261598     10.016     16.109     14.283
     335      14   8 0.2606465860008584      7.846     18.963      11.58
     336      14   9 -0.2665697034732032      7.336     19.141     10.439
     337      14  10 -0.32678170186854055      7.293     18.034     12.467
     338      14   7 0.012354333535261598       6.19     17.207     12.119
     339      14   8 0.2606465860008584     10.862     22.553     11.676
     340      14   9 -0.2665697034732032     11.992     22.862     12.142
     341      14  10 -0.32678170186854055     10.652     22.535     10.292
     342      14   7 0.012354333535261598      11.72     22.622      9.357
     343      14   8 0.2606465860008584      8.913     24.912     11.182
     344      14   9 -0.2665697034732032      8.529     24.688     10.001
     345      14  10 -0.32678170186854055      10.02     25.732     11.427
     346      14   7 0.012354333535261598     10.747     26.374     10.386
     347      14   8 0.2606465860008109      6.219     26.609     11.264
     348      14   9 -0.2665697034732032      5.315     26.437       10.4
     349      14  10 -0.32678170186854055       7.29     27.464      10.99
     350      14   7 0.012354333535261598      7.425     28.145       9.75
     351      14   8 0.26064657974206923      6.504     27.013     15.736
     352      14   9 -0.2665697034997189      5.813     26.455     16.632
     353      14  10 -0.3267817018867745      7.901     26.956      15.79
     354      14   7 0.012354333535215624      8.603     26.212     16.779
     355      14   8 0.26060073193644273      5.273     30.042     12.197
     356      14   9 -0.2665705547665383      5.709     30.689     11.204
     357      14  10 -0.32678228458194253      4.108     29.283     12.076
     358      14   7 0.012354327428114127      3.337      29.24     10.882